ITEM: TIMESTEP
0
ITEM: NUMBER OF ATOMS
6500
ITEM: BOX BOUNDS pp pp pp
0 100
0 100
0 100
ITEM: ATOMS id type mol x y z bP
0 0 0 98 44 68 -1
1 0 0 98 43 71 -1
2 0 0 95 41 69 -1
3 0 0 97 45 71 5342
4 0 0 94 48 72 -1
5 0 0 92 49 73 2278
6 0 1 71 7 79 -1
7 0 1 74 8 77 -1
8 0 1 76 7 79 -1
9 0 1 76 7 78 -1
10 0 1 73 5 79 -1
11 0 1 76 4 80 -1
12 0 2 81 85 29 2023
13 0 2 78 82 26 -1
14 0 2 80 85 28 -1
15 0 2 78 83 27 -1
16 0 2 78 87 30 5930
17 0 2 81 90 32 -1
18 0 3 85 74 85 -1
19 0 3 84 79 84 6210
20 0 3 83 78 87 1754
21 0 3 85 82 87 6051
22 0 3 88 80 84 2976
23 0 3 85 81 82 6049
24 0 4 67 71 3 -1
25 0 4 64 68 1 -1
26 0 4 66 65 3 -1
27 0 4 70 65 4 -1
28 0 4 66 63 2 -1
29 0 4 66 61 3 -1
30 0 5 96 52 74 5920
31 0 5 98 49 71 -1
32 0 5 94 46 70 2277
33 0 5 90 48 71 -1
34 0 5 90 50 74 -1
35 0 5 94 51 72 -1
36 0 6 93 84 37 -1
37 0 6 89 82 35 -1
38 0 6 91 80 35 -1
39 0 6 90 78 37 -1
40 0 6 89 78 39 -1
41 0 6 86 77 42 -1
42 0 7 9 99 71 -1
43 0 7 11 97 70 -1
44 0 7 12 97 70 -1
45 0 7 11 93 69 -1
46 0 7 10 88 68 -1
47 0 7 14 86 69 -1
48 0 8 75 38 3 -1
49 0 8 76 39 5 -1
50 0 8 80 40 2 2314
51 0 8 79 42 2 -1
52 0 8 77 41 2 -1
53 0 8 74 42 1 -1
54 0 9 5 44 83 -1
55 0 9 5 47 83 -1
56 0 9 2 47 83 -1
57 0 9 0 45 81 -1
58 0 9 96 45 83 -1
59 0 9 0 44 81 -1
60 0 10 32 82 2 -1
61 0 10 34 84 0 6264
62 0 10 35 87 1 5224
63 0 10 33 85 2 -1
64 0 10 31 89 0 -1
65 0 10 34 90 97 -1
66 0 11 87 71 18 6187
67 0 11 86 71 17 6186
68 0 11 87 74 14 -1
69 0 11 89 72 15 2867
70 0 11 86 68 16 6190
71 0 11 86 70 17 -1
72 0 12 70 14 23 -1
73 0 12 74 11 24 -1
74 0 12 75 11 24 -1
75 0 12 74 8 22 -1
76 0 12 71 5 20 2291
77 0 12 70 3 22 -1
78 0 13 24 6 4 -1
79 0 13 22 7 1 -1
80 0 13 26 7 0 5538
81 0 13 30 7 98 6013
82 0 13 31 11 99 -1
83 0 13 29 10 99 5505
84 0 14 80 4 94 1548
85 0 14 80 8 92 -1
86 0 14 77 5 94 -1
87 0 14 80 6 93 -1
88 0 14 78 8 94 -1
89 0 14 81 11 97 -1
90 0 15 84 4 7 -1
91 0 15 85 9 7 5833
92 0 15 85 6 6 1561
93 0 15 86 11 7 5834
94 0 15 91 10 7 5829
95 0 15 90 11 11 -1
96 0 16 73 84 41 -1
97 0 16 75 85 44 -1
98 0 16 70 86 44 -1
99 0 16 70 90 42 -1
100 0 16 66 89 42 -1
101 0 16 65 84 43 -1
102 0 17 7 36 90 -1
103 0 17 7 33 90 -1
104 0 17 6 32 91 -1
105 0 17 5 31 88 -1
106 0 17 4 28 87 -1
107 0 17 1 25 87 -1
108 0 18 95 34 80 -1
109 0 18 95 30 80 -1
110 0 18 98 28 81 -1
111 0 18 96 30 78 -1
112 0 18 93 34 77 6449
113 0 18 94 31 77 -1
114 0 19 71 32 15 -1
115 0 19 72 31 11 -1
116 0 19 71 32 12 2084
117 0 19 74 31 10 2083
118 0 19 75 34 9 2082
119 0 19 74 36 12 -1
120 0 20 16 40 91 -1
121 0 20 18 40 90 -1
122 0 20 22 39 89 5252
123 0 20 25 40 90 -1
124 0 20 24 36 89 -1
125 0 20 25 33 86 -1
126 0 21 3 22 2 -1
127 0 21 2 21 2 -1
128 0 21 6 21 2 -1
129 0 21 2 21 3 -1
130 0 21 0 19 3 2768
131 0 21 98 21 2 1938
132 0 22 36 66 63 -1
133 0 22 37 68 61 -1
134 0 22 34 67 58 -1
135 0 22 37 71 57 6183
136 0 22 36 72 56 5008
137 0 22 32 73 56 -1
138 0 23 98 66 69 -1
139 0 23 1 65 72 2880
140 0 23 3 63 73 -1
141 0 23 2 59 71 5208
142 0 23 98 56 71 -1
143 0 23 96 56 75 -1
144 0 24 80 84 26 2027
145 0 24 81 86 23 -1
146 0 24 81 88 25 -1
147 0 24 80 88 28 2024
148 0 24 83 89 29 -1
149 0 24 86 90 30 5453
150 0 25 85 82 92 -1
151 0 25 83 81 89 -1
152 0 25 86 79 89 -1
153 0 25 88 81 86 -1
154 0 25 88 80 86 2980
155 0 25 85 79 90 -1
156 0 26 17 48 69 -1
157 0 26 15 51 69 -1
158 0 26 13 51 68 6301
159 0 26 13 53 68 6300
160 0 26 13 52 73 6452
161 0 26 11 55 74 -1
162 0 27 5 50 19 1767
163 0 27 7 52 15 -1
164 0 27 10 49 14 -1
165 0 27 10 48 14 -1
166 0 27 7 48 12 -1
167 0 27 10 49 9 -1
168 0 28 32 74 28 -1
169 0 28 30 76 30 5637
170 0 28 30 78 29 5638
171 0 28 33 80 28 5634
172 0 28 35 80 32 -1
173 0 28 31 80 33 5285
174 0 29 20 70 44 -1
175 0 29 20 67 45 1870
176 0 29 19 66 43 -1
177 0 29 17 65 40 -1
178 0 29 16 67 41 1869
179 0 29 14 71 42 -1
180 0 30 45 47 45 -1
181 0 30 48 48 47 -1
182 0 30 50 49 46 -1
183 0 30 49 49 44 -1
184 0 30 52 50 46 -1
185 0 30 50 50 45 -1
186 0 31 34 33 62 -1
187 0 31 34 34 58 -1
188 0 31 33 31 55 -1
189 0 31 35 27 54 -1
190 0 31 34 24 55 -1
191 0 31 32 26 58 6091
192 0 32 20 73 5 -1
193 0 32 22 75 7 -1
194 0 32 18 76 4 2212
195 0 32 21 80 3 -1
196 0 32 22 83 1 -1
197 0 32 23 87 99 -1
198 0 33 6 22 6 2770
199 0 33 2 20 8 6259
200 0 33 2 19 9 -1
201 0 33 5 16 7 6257
202 0 33 5 20 9 -1
203 0 33 10 21 8 -1
204 0 34 25 50 15 2760
205 0 34 28 51 17 2761
206 0 34 29 54 20 -1
207 0 34 30 52 17 2697
208 0 34 31 48 17 2696
209 0 34 30 52 14 -1
210 0 35 19 5 88 5466
211 0 35 21 3 88 5469
212 0 35 21 0 87 -1
213 0 35 23 99 88 -1
214 0 35 21 99 90 -1
215 0 35 22 3 90 5467
216 0 36 82 54 17 -1
217 0 36 83 50 17 -1
218 0 36 83 51 13 2172
219 0 36 83 52 14 4978
220 0 36 86 54 11 -1
221 0 36 87 52 12 -1
222 0 37 22 11 18 -1
223 0 37 19 15 17 -1
224 0 37 18 11 18 4802
225 0 37 20 12 20 2638
226 0 37 18 9 18 2637
227 0 37 20 10 20 -1
228 0 38 6 11 53 -1
229 0 38 8 8 50 -1
230 0 38 9 8 51 -1
231 0 38 7 8 47 -1
232 0 38 8 6 47 -1
233 0 38 10 3 46 -1
234 0 39 97 60 21 -1
235 0 39 98 62 21 -1
236 0 39 0 60 19 -1
237 0 39 1 63 17 -1
238 0 39 3 62 15 -1
239 0 39 6 65 14 -1
240 0 40 11 53 78 4928
241 0 40 14 56 78 5719
242 0 40 13 52 80 1815
243 0 40 12 53 78 5648
244 0 40 12 54 81 5946
245 0 40 11 58 81 5721
246 0 41 8 78 12 5661
247 0 41 9 77 11 5665
248 0 41 12 76 14 5664
249 0 41 7 75 13 5666
250 0 41 8 72 15 -1
251 0 41 8 73 17 6069
252 0 42 44 29 98 -1
253 0 42 44 32 99 -1
254 0 42 43 36 1 -1
255 0 42 44 33 1 -1
256 0 42 41 33 0 -1
257 0 42 40 33 1 -1
258 0 43 76 70 31 -1
259 0 43 76 68 29 5549
260 0 43 76 67 28 -1
261 0 43 72 64 28 -1
262 0 43 75 67 26 -1
263 0 43 73 68 22 -1
264 0 44 49 14 11 6076
265 0 44 51 12 10 -1
266 0 44 55 14 9 -1
267 0 44 54 13 8 -1
268 0 44 55 16 7 -1
269 0 44 60 16 8 -1
270 0 45 34 88 98 -1
271 0 45 33 86 95 -1
272 0 45 30 84 97 -1
273 0 45 29 85 95 1690
274 0 45 30 82 95 -1
275 0 45 27 85 95 1570
276 0 46 5 39 55 -1
277 0 46 7 37 51 -1
278 0 46 10 34 51 -1
279 0 46 7 34 48 -1
280 0 46 7 33 44 1717
281 0 46 6 29 44 -1
282 0 47 95 8 13 -1
283 0 47 95 4 15 -1
284 0 47 98 3 15 -1
285 0 47 1 3 16 -1
286 0 47 1 1 15 -1
287 0 47 1 99 15 -1
288 0 48 64 94 46 5876
289 0 48 67 95 43 5704
290 0 48 69 93 43 -1
291 0 48 67 89 45 -1
292 0 48 68 89 46 -1
293 0 48 70 89 45 -1
294 0 49 28 85 98 -1
295 0 49 30 86 96 2068
296 0 49 30 84 96 -1
297 0 49 30 80 94 2570
298 0 49 27 80 95 1566
299 0 49 28 79 98 -1
300 0 50 62 13 46 -1
301 0 50 63 12 47 -1
302 0 50 64 8 46 -1
303 0 50 68 9 46 -1
304 0 50 72 8 47 -1
305 0 50 71 7 44 -1
306 0 51 59 54 56 -1
307 0 51 61 53 53 -1
308 0 51 63 51 56 -1
309 0 51 67 48 56 5770
310 0 51 71 46 56 -1
311 0 51 71 42 59 5768
312 0 52 19 53 79 1615
313 0 52 20 49 81 -1
314 0 52 25 50 82 -1
315 0 52 27 53 80 -1
316 0 52 27 54 82 -1
317 0 52 24 51 80 -1
318 0 53 53 82 35 -1
319 0 53 51 85 36 -1
320 0 53 49 81 36 -1
321 0 53 50 86 35 -1
322 0 53 47 83 35 5599
323 0 53 46 84 35 -1
324 0 54 73 34 87 -1
325 0 54 69 37 87 -1
326 0 54 71 39 84 -1
327 0 54 71 37 85 -1
328 0 54 72 36 86 -1
329 0 54 73 37 91 -1
330 0 55 51 61 25 -1
331 0 55 53 61 25 -1
332 0 55 53 59 24 -1
333 0 55 55 57 28 5991
334 0 55 58 59 26 -1
335 0 55 60 60 26 -1
336 0 56 34 31 76 4828
337 0 56 37 31 75 -1
338 0 56 38 31 75 -1
339 0 56 36 33 71 -1
340 0 56 34 29 70 -1
341 0 56 31 28 71 4833
342 0 57 82 40 54 5167
343 0 57 81 43 56 5354
344 0 57 80 47 55 -1
345 0 57 76 48 56 -1
346 0 57 77 46 60 -1
347 0 57 79 44 60 -1
348 0 58 52 50 48 5307
349 0 58 49 51 52 -1
350 0 58 54 50 52 -1
351 0 58 53 54 55 -1
352 0 58 52 52 54 -1
353 0 58 53 49 50 2910
354 0 59 2 82 59 -1
355 0 59 4 79 59 -1
356 0 59 7 79 60 -1
357 0 59 10 76 57 -1
358 0 59 12 73 54 -1
359 0 59 9 75 52 -1
360 0 60 88 36 67 -1
361 0 60 86 34 67 -1
362 0 60 87 31 71 -1
363 0 60 85 30 72 -1
364 0 60 83 31 69 -1
365 0 60 83 33 72 -1
366 0 61 96 34 18 -1
367 0 61 99 31 20 5643
368 0 61 98 35 23 -1
369 0 61 94 36 20 -1
370 0 61 90 37 23 2849
371 0 61 93 34 22 5754
372 0 62 40 4 30 -1
373 0 62 42 3 31 2802
374 0 62 44 2 30 6372
375 0 62 44 99 34 -1
376 0 62 46 96 33 -1
377 0 62 44 95 30 -1
378 0 63 65 89 48 5398
379 0 63 67 92 51 -1
380 0 63 68 93 53 -1
381 0 63 69 92 50 -1
382 0 63 71 89 47 -1
383 0 63 72 91 48 4950
384 0 64 79 80 29 -1
385 0 64 79 77 28 -1
386 0 64 83 77 29 -1
387 0 64 84 75 25 -1
388 0 64 85 79 23 -1
389 0 64 86 76 22 2346
390 0 65 89 51 33 -1
391 0 65 88 55 31 -1
392 0 65 92 54 30 -1
393 0 65 96 51 30 -1
394 0 65 96 50 30 -1
395 0 65 99 49 30 -1
396 0 66 87 14 4 -1
397 0 66 84 17 1 -1
398 0 66 81 20 1 -1
399 0 66 83 20 2 -1
400 0 66 82 18 0 -1
401 0 66 85 18 1 -1
402 0 67 17 53 82 5943
403 0 67 19 52 80 1831
404 0 67 18 54 76 6302
405 0 67 20 55 80 -1
406 0 67 22 51 78 6303
407 0 67 18 52 77 5941
408 0 68 51 97 6 -1
409 0 68 51 96 3 -1
410 0 68 50 92 0 2462
411 0 68 49 95 1 -1
412 0 68 51 98 98 -1
413 0 68 52 0 94 -1
414 0 69 52 63 29 -1
415 0 69 50 64 33 -1
416 0 69 51 66 30 -1
417 0 69 50 70 32 -1
418 0 69 46 69 34 -1
419 0 69 43 69 30 -1
420 0 70 84 11 1 1628
421 0 70 82 9 3 -1
422 0 70 80 9 2 -1
423 0 70 81 7 2 1631
424 0 70 82 9 98 -1
425 0 70 79 7 95 1626
426 0 71 16 4 27 4888
427 0 71 14 3 31 2716
428 0 71 13 1 33 5292
429 0 71 10 0 32 -1
430 0 71 8 99 32 5293
431 0 71 12 97 33 5291
432 0 72 23 13 11 -1
433 0 72 24 14 10 -1
434 0 72 24 17 11 -1
435 0 72 26 18 10 -1
436 0 72 26 21 14 -1
437 0 72 29 23 11 -1
438 0 73 4 61 72 -1
439 0 73 6 62 71 -1
440 0 73 5 58 69 2079
441 0 73 7 59 67 2075
442 0 73 6 59 72 -1
443 0 73 5 61 74 -1
444 0 74 84 73 12 -1
445 0 74 85 70 15 -1
446 0 74 87 74 16 -1
447 0 74 87 75 12 -1
448 0 74 84 79 13 -1
449 0 74 83 78 10 -1
450 0 75 74 71 80 -1
451 0 75 74 74 80 -1
452 0 75 77 74 82 2971
453 0 75 79 76 80 2970
454 0 75 79 73 81 -1
455 0 75 82 73 82 -1
456 0 76 5 15 24 -1
457 0 76 2 18 22 -1
458 0 76 5 14 23 -1
459 0 76 7 11 26 -1
460 0 76 11 10 27 6195
461 0 76 12 9 24 1807
462 0 77 23 42 66 -1
463 0 77 25 39 68 -1
464 0 77 24 39 68 -1
465 0 77 27 39 71 5815
466 0 77 31 39 71 -1
467 0 77 30 38 67 -1
468 0 78 62 76 21 -1
469 0 78 62 75 20 -1
470 0 78 62 78 20 -1
471 0 78 61 78 22 -1
472 0 78 58 76 20 -1
473 0 78 58 78 22 6233
474 0 79 76 35 7 -1
475 0 79 74 37 5 5229
476 0 79 76 33 7 -1
477 0 79 74 34 5 -1
478 0 79 77 32 8 -1
479 0 79 75 33 6 5231
480 0 80 98 45 77 2126
481 0 80 0 49 76 -1
482 0 80 3 46 74 2371
483 0 80 99 49 74 -1
484 0 80 97 46 77 2127
485 0 80 0 46 81 -1
486 0 81 81 6 90 -1
487 0 81 77 4 90 -1
488 0 81 79 3 87 -1
489 0 81 77 99 88 -1
490 0 81 78 2 85 -1
491 0 81 76 1 83 -1
492 0 82 11 56 76 2340
493 0 82 8 56 79 1929
494 0 82 6 56 82 -1
495 0 82 4 58 86 -1
496 0 82 3 56 90 2606
497 0 82 7 55 89 -1
498 0 83 28 87 4 -1
499 0 83 30 83 3 -1
500 0 83 26 81 4 2565
501 0 83 25 80 5 1677
502 0 83 22 80 5 -1
503 0 83 25 76 6 -1
504 0 84 88 4 1 -1
505 0 84 88 2 5 2919
506 0 84 89 2 0 1704
507 0 84 92 98 1 2917
508 0 84 93 96 4 -1
509 0 84 94 98 4 2916
510 0 85 24 73 58 -1
511 0 85 25 74 53 -1
512 0 85 29 76 52 2968
513 0 85 26 77 50 -1
514 0 85 29 78 47 1519
515 0 85 26 80 47 -1
516 0 86 51 83 62 -1
517 0 86 52 80 65 -1
518 0 86 48 78 66 -1
519 0 86 47 80 64 -1
520 0 86 50 77 62 -1
521 0 86 52 80 64 -1
522 0 87 16 16 20 6214
523 0 87 15 15 20 6218
524 0 87 17 16 16 2707
525 0 87 20 18 15 -1
526 0 87 21 20 13 2709
527 0 87 17 21 13 -1
528 0 88 24 6 28 -1
529 0 88 23 4 28 -1
530 0 88 19 4 30 2714
531 0 88 19 5 30 2715
532 0 88 19 1 33 -1
533 0 88 16 0 32 5290
534 0 89 74 13 31 -1
535 0 89 78 14 28 -1
536 0 89 76 13 32 -1
537 0 89 76 10 33 -1
538 0 89 78 11 31 -1
539 0 89 74 8 30 5984
540 0 90 78 83 26 -1
541 0 90 80 82 27 5929
542 0 90 77 80 28 2026
543 0 90 78 85 28 2025
544 0 90 76 81 28 -1
545 0 90 74 79 31 -1
546 0 91 75 42 70 6328
547 0 91 73 39 69 5531
548 0 91 71 37 69 -1
549 0 91 74 40 69 -1
550 0 91 74 41 66 6331
551 0 91 73 40 70 6329
552 0 92 72 19 94 -1
553 0 92 74 19 90 1790
554 0 92 75 20 92 -1
555 0 92 76 18 89 6489
556 0 92 71 19 88 1695
557 0 92 70 22 85 1697
558 0 93 97 45 67 -1
559 0 93 95 45 70 -1
560 0 93 94 47 72 -1
561 0 93 97 47 71 -1
562 0 93 96 48 76 -1
563 0 93 92 51 75 5921
564 0 94 32 88 98 1689
565 0 94 31 88 94 2065
566 0 94 31 88 97 2067
567 0 94 31 85 97 2064
568 0 94 28 88 95 -1
569 0 94 25 84 95 -1
570 0 95 20 9 87 -1
571 0 95 19 10 88 -1
572 0 95 21 9 85 -1
573 0 95 19 8 81 -1
574 0 95 19 9 79 -1
575 0 95 22 5 79 -1
576 0 96 18 79 10 2250
577 0 96 19 79 10 -1
578 0 96 19 75 11 2090
579 0 96 17 77 10 -1
580 0 96 15 75 9 5312
581 0 96 14 76 14 -1
582 0 97 38 48 6 5760
583 0 97 35 45 5 -1
584 0 97 34 46 5 5764
585 0 97 32 50 4 -1
586 0 97 36 53 3 -1
587 0 97 35 51 1 -1
588 0 98 69 10 39 -1
589 0 98 67 6 39 -1
590 0 98 68 8 37 -1
591 0 98 65 5 35 -1
592 0 98 68 5 36 -1
593 0 98 65 8 37 -1
594 0 99 18 59 22 -1
595 0 99 19 62 20 -1
596 0 99 22 60 20 -1
597 0 99 22 58 20 -1
598 0 99 26 61 21 -1
599 0 99 25 59 23 -1
600 0 100 7 45 76 -1
601 0 100 9 44 76 5775
602 0 100 12 44 80 2380
603 0 100 15 48 81 6319
604 0 100 16 46 77 -1
605 0 100 20 46 80 -1
606 0 101 41 13 95 1827
607 0 101 44 11 95 1828
608 0 101 45 13 94 -1
609 0 101 47 9 96 -1
610 0 101 48 8 92 -1
611 0 101 50 10 96 -1
612 0 102 98 52 86 -1
613 0 102 99 52 86 -1
614 0 102 3 54 88 5130
615 0 102 0 56 89 -1
616 0 102 1 60 89 -1
617 0 102 4 63 88 -1
618 0 103 31 11 54 -1
619 0 103 34 15 55 -1
620 0 103 33 10 54 2534
621 0 103 33 6 56 2537
622 0 103 30 10 55 -1
623 0 103 31 11 50 5202
624 0 104 77 37 78 -1
625 0 104 77 38 77 1664
626 0 104 75 37 77 -1
627 0 104 73 39 73 -1
628 0 104 72 42 75 5530
629 0 104 71 43 78 -1
630 0 105 63 33 90 -1
631 0 105 66 37 91 2243
632 0 105 64 39 89 -1
633 0 105 60 38 92 -1
634 0 105 61 37 89 -1
635 0 105 62 35 87 -1
636 0 106 90 35 99 -1
637 0 106 95 36 99 2579
638 0 106 97 36 99 6124
639 0 106 95 38 97 -1
640 0 106 97 39 97 -1
641 0 106 99 42 0 -1
642 0 107 28 79 91 5061
643 0 107 31 79 91 2994
644 0 107 34 75 92 5062
645 0 107 30 77 93 2573
646 0 107 27 76 91 -1
647 0 107 25 74 89 1507
648 0 108 85 73 90 5574
649 0 108 82 74 88 6208
650 0 108 83 77 85 5570
651 0 108 82 79 84 6048
652 0 108 83 79 85 -1
653 0 108 83 81 85 -1
654 0 109 49 11 23 2685
655 0 109 48 10 18 -1
656 0 109 46 11 19 -1
657 0 109 47 12 19 -1
658 0 109 50 11 18 -1
659 0 109 50 13 19 6075
660 0 110 65 65 82 -1
661 0 110 64 66 81 -1
662 0 110 66 65 84 -1
663 0 110 65 67 85 -1
664 0 110 66 64 88 -1
665 0 110 67 64 92 -1
666 0 111 24 66 65 6245
667 0 111 27 67 63 -1
668 0 111 27 63 66 5326
669 0 111 31 66 66 -1
670 0 111 36 67 67 -1
671 0 111 35 65 70 -1
672 0 112 60 75 87 -1
673 0 112 59 75 84 -1
674 0 112 57 73 82 -1
675 0 112 60 74 84 -1
676 0 112 60 78 85 -1
677 0 112 64 75 85 -1
678 0 113 4 0 45 -1
679 0 113 2 98 45 5361
680 0 113 3 1 49 5362
681 0 113 1 98 51 -1
682 0 113 3 98 53 4836
683 0 113 5 1 53 -1
684 0 114 4 55 66 1699
685 0 114 1 57 68 -1
686 0 114 0 58 69 -1
687 0 114 99 61 70 -1
688 0 114 98 62 69 2076
689 0 114 98 59 68 5145
690 0 115 97 65 95 2518
691 0 115 94 68 97 -1
692 0 115 92 67 99 2527
693 0 115 94 66 96 6469
694 0 115 95 68 98 -1
695 0 115 98 65 95 5785
696 0 116 63 42 1 -1
697 0 116 65 43 4 -1
698 0 116 62 46 6 -1
699 0 116 63 44 7 -1
700 0 116 63 45 5 -1
701 0 116 60 47 8 -1
702 0 117 21 70 88 -1
703 0 117 23 72 88 -1
704 0 117 21 73 87 -1
705 0 117 22 68 88 -1
706 0 117 21 70 85 -1
707 0 117 18 74 86 -1
708 0 118 25 78 96 -1
709 0 118 26 81 97 -1
710 0 118 29 84 98 6265
711 0 118 27 83 1 5159
712 0 118 28 83 99 1686
713 0 118 27 79 99 5160
714 0 119 30 28 86 -1
715 0 119 28 29 88 -1
716 0 119 30 28 88 2044
717 0 119 26 25 88 2043
718 0 119 29 29 89 2040
719 0 119 27 33 88 -1
720 0 120 1 39 80 -1
721 0 120 99 40 78 -1
722 0 120 0 38 77 -1
723 0 120 97 41 78 2125
724 0 120 98 41 77 -1
725 0 120 99 39 79 -1
726 0 121 38 75 10 2229
727 0 121 37 73 8 -1
728 0 121 36 70 4 2503
729 0 121 36 68 1 2502
730 0 121 34 72 99 -1
731 0 121 37 73 97 5939
732 0 122 15 27 89 -1
733 0 122 16 32 89 -1
734 0 122 17 33 84 -1
735 0 122 15 30 85 -1
736 0 122 17 32 82 -1
737 0 122 22 31 83 -1
738 0 123 93 72 81 -1
739 0 123 92 76 84 -1
740 0 123 91 79 88 2979
741 0 123 86 78 88 1921
742 0 123 87 79 83 6212
743 0 123 84 79 83 -1
744 0 124 61 56 37 2750
745 0 124 59 56 37 -1
746 0 124 62 59 37 -1
747 0 124 60 60 37 -1
748 0 124 60 62 33 -1
749 0 124 64 63 34 -1
750 0 125 88 39 71 -1
751 0 125 90 39 73 6447
752 0 125 88 41 74 5014
753 0 125 86 41 73 5015
754 0 125 91 42 72 6445
755 0 125 89 41 74 -1
756 0 126 92 63 12 1556
757 0 126 88 63 13 -1
758 0 126 90 66 14 -1
759 0 126 86 64 14 1554
760 0 126 88 60 12 -1
761 0 126 89 63 15 5568
762 0 127 28 83 91 -1
763 0 127 31 84 92 1569
764 0 127 34 84 92 5064
765 0 127 31 84 89 2960
766 0 127 30 85 90 1691
767 0 127 29 83 88 -1
768 0 128 17 48 76 -1
769 0 128 14 47 74 -1
770 0 128 14 49 72 1540
771 0 128 14 47 76 -1
772 0 128 12 50 79 5774
773 0 128 15 47 77 6170
774 0 129 44 74 11 -1
775 0 129 43 77 9 -1
776 0 129 46 76 10 -1
777 0 129 44 76 11 -1
778 0 129 42 76 10 6333
779 0 129 45 79 10 6427
780 0 130 16 56 70 -1
781 0 130 15 55 71 -1
782 0 130 16 54 69 4916
783 0 130 14 56 71 1926
784 0 130 13 58 74 -1
785 0 130 13 58 78 1537
786 0 131 64 90 32 -1
787 0 131 63 90 33 -1
788 0 131 66 91 37 -1
789 0 131 70 90 35 -1
790 0 131 68 91 32 -1
791 0 131 69 90 33 -1
792 0 132 26 44 18 -1
793 0 132 28 43 16 -1
794 0 132 30 45 15 -1
795 0 132 31 47 15 -1
796 0 132 32 48 19 -1
797 0 132 30 50 18 2698
798 0 133 54 51 51 -1
799 0 133 56 49 50 -1
800 0 133 58 52 49 2810
801 0 133 58 47 48 2857
802 0 133 58 49 45 -1
803 0 133 58 46 43 2859
804 0 134 2 57 44 -1
805 0 134 98 58 46 -1
806 0 134 1 61 43 -1
807 0 134 0 62 41 -1
808 0 134 3 59 44 -1
809 0 134 0 55 45 -1
810 0 135 42 85 11 -1
811 0 135 42 84 12 -1
812 0 135 40 83 14 -1
813 0 135 43 82 11 6424
814 0 135 41 85 14 -1
815 0 135 39 85 12 -1
816 0 136 84 83 87 -1
817 0 136 85 81 88 -1
818 0 136 83 78 88 -1
819 0 136 82 80 89 1922
820 0 136 79 77 92 5573
821 0 136 79 77 94 -1
822 0 137 18 85 65 -1
823 0 137 20 84 65 -1
824 0 137 21 83 62 -1
825 0 137 21 80 61 -1
826 0 137 19 81 57 -1
827 0 137 21 82 53 -1
828 0 138 57 39 97 -1
829 0 138 59 38 97 -1
830 0 138 55 37 0 -1
831 0 138 57 38 99 -1
832 0 138 58 38 0 -1
833 0 138 56 38 99 -1
834 0 139 38 46 14 -1
835 0 139 38 43 11 5406
836 0 139 38 41 15 5407
837 0 139 41 41 13 -1
838 0 139 38 39 15 -1
839 0 139 36 39 12 -1
840 0 140 89 48 89 -1
841 0 140 89 47 92 -1
842 0 140 91 45 94 -1
843 0 140 93 41 92 -1
844 0 140 91 39 89 -1
845 0 140 91 43 91 -1
846 0 141 20 20 16 6161
847 0 141 19 21 13 -1
848 0 141 22 22 14 -1
849 0 141 18 22 11 -1
850 0 141 18 25 10 -1
851 0 141 19 21 12 -1
852 0 142 12 76 65 -1
853 0 142 15 75 63 -1
854 0 142 13 77 61 -1
855 0 142 12 73 58 -1
856 0 142 12 72 61 -1
857 0 142 11 75 63 -1
858 0 143 38 22 22 -1
859 0 143 34 22 22 -1
860 0 143 33 19 24 -1
861 0 143 34 16 22 -1
862 0 143 38 17 19 -1
863 0 143 37 18 20 5098
864 0 144 2 46 93 -1
865 0 144 99 49 93 -1
866 0 144 96 52 90 -1
867 0 144 92 53 92 -1
868 0 144 95 52 95 -1
869 0 144 98 50 98 -1
870 0 145 19 13 74 -1
871 0 145 20 10 70 -1
872 0 145 20 11 70 -1
873 0 145 22 11 68 -1
874 0 145 19 10 67 -1
875 0 145 24 9 68 -1
876 0 146 59 63 54 -1
877 0 146 58 63 54 -1
878 0 146 55 67 55 5022
879 0 146 54 64 54 -1
880 0 146 54 61 56 -1
881 0 146 50 62 55 -1
882 0 147 10 59 73 2622
883 0 147 9 59 72 1997
884 0 147 9 58 73 4902
885 0 147 5 57 75 -1
886 0 147 6 58 70 4901
887 0 147 2 59 68 2077
888 0 148 43 50 98 -1
889 0 148 40 48 97 -1
890 0 148 40 51 99 -1
891 0 148 43 52 2 -1
892 0 148 46 55 5 -1
893 0 148 49 54 4 -1
894 0 149 59 33 61 -1
895 0 149 56 29 60 6140
896 0 149 53 27 61 -1
897 0 149 51 31 59 -1
898 0 149 49 32 56 -1
899 0 149 52 36 56 -1
900 0 150 89 1 66 -1
901 0 150 87 98 69 -1
902 0 150 85 96 66 -1
903 0 150 83 97 62 -1
904 0 150 86 1 63 -1
905 0 150 86 3 65 -1
906 0 151 1 11 46 -1
907 0 151 99 8 49 -1
908 0 151 0 11 48 -1
909 0 151 1 11 51 -1
910 0 151 0 10 46 -1
911 0 151 99 11 51 2170
912 0 152 9 45 80 2898
913 0 152 10 48 83 -1
914 0 152 10 49 83 2343
915 0 152 9 50 84 2342
916 0 152 8 47 84 -1
917 0 152 11 49 84 2104
918 0 153 77 83 15 1594
919 0 153 78 84 13 -1
920 0 153 78 86 12 -1
921 0 153 77 87 13 -1
922 0 153 76 84 15 -1
923 0 153 74 87 17 -1
924 0 154 59 10 93 -1
925 0 154 58 11 89 -1
926 0 154 59 11 89 -1
927 0 154 58 11 85 -1
928 0 154 57 12 89 -1
929 0 154 60 11 86 -1
930 0 155 53 33 11 -1
931 0 155 53 31 12 -1
932 0 155 51 30 15 -1
933 0 155 48 29 17 -1
934 0 155 47 33 16 -1
935 0 155 48 35 18 -1
936 0 156 30 85 40 -1
937 0 156 28 81 38 -1
938 0 156 28 79 39 -1
939 0 156 28 80 41 -1
940 0 156 32 83 42 -1
941 0 156 34 84 43 -1
942 0 157 87 70 20 -1
943 0 157 88 68 19 -1
944 0 157 91 67 23 -1
945 0 157 86 68 23 -1
946 0 157 84 71 26 1586
947 0 157 82 71 24 -1
948 0 158 1 97 1 -1
949 0 158 4 96 98 -1
950 0 158 4 95 97 1672
951 0 158 2 96 95 -1
952 0 158 2 92 94 -1
953 0 158 5 95 97 -1
954 0 159 57 47 23 -1
955 0 159 53 49 21 -1
956 0 159 54 49 19 -1
957 0 159 53 46 18 -1
958 0 159 50 42 18 -1
959 0 159 49 41 20 -1
960 0 160 2 56 76 2737
961 0 160 3 58 75 -1
962 0 160 1 55 73 5206
963 0 160 3 58 71 4900
964 0 160 4 56 70 -1
965 0 160 6 54 71 6456
966 0 161 56 20 23 -1
967 0 161 55 17 24 -1
968 0 161 58 19 27 2819
969 0 161 56 17 25 -1
970 0 161 55 16 25 -1
971 0 161 54 13 29 -1
972 0 162 75 16 34 -1
973 0 162 75 16 29 1991
974 0 162 75 16 33 -1
975 0 162 71 13 34 -1
976 0 162 73 11 35 -1
977 0 162 73 15 34 -1
978 0 163 90 77 84 -1
979 0 163 86 74 84 6209
980 0 163 81 75 84 5571
981 0 163 80 73 86 2973
982 0 163 81 76 88 -1
983 0 163 80 77 91 -1
984 0 164 67 86 57 -1
985 0 164 69 86 56 -1
986 0 164 67 89 53 5397
987 0 164 71 89 50 5396
988 0 164 71 92 53 5395
989 0 164 75 93 55 -1
990 0 165 35 23 17 -1
991 0 165 36 25 15 -1
992 0 165 37 26 16 -1
993 0 165 38 21 16 5094
994 0 165 38 20 17 5097
995 0 165 35 21 16 -1
996 0 166 8 62 18 -1
997 0 166 6 63 15 -1
998 0 166 2 63 17 -1
999 0 166 3 66 19 -1
1000 0 166 99 66 21 1985
1001 0 166 1 70 22 1984
1002 0 167 44 47 83 -1
1003 0 167 43 46 81 -1
1004 0 167 41 44 79 -1
1005 0 167 42 43 74 -1
1006 0 167 38 45 73 -1
1007 0 167 41 44 75 -1
1008 0 168 74 29 64 -1
1009 0 168 74 31 65 -1
1010 0 168 75 29 65 -1
1011 0 168 76 27 67 -1
1012 0 168 74 27 64 -1
1013 0 168 76 28 63 -1
1014 0 169 95 67 1 -1
1015 0 169 99 66 0 -1
1016 0 169 97 66 96 -1
1017 0 169 98 64 99 1545
1018 0 169 95 66 97 2517
1019 0 169 97 64 98 -1
1020 0 170 22 78 18 -1
1021 0 170 23 80 20 5747
1022 0 170 23 77 20 -1
1023 0 170 26 81 19 -1
1024 0 170 23 78 17 6385
1025 0 170 22 76 18 -1
1026 0 171 13 55 78 -1
1027 0 171 14 53 82 -1
1028 0 171 14 49 79 -1
1029 0 171 11 45 79 -1
1030 0 171 14 43 77 6443
1031 0 171 13 44 82 2344
1032 0 172 62 72 95 -1
1033 0 172 60 75 94 -1
1034 0 172 57 73 92 -1
1035 0 172 57 75 95 -1
1036 0 172 53 74 96 1865
1037 0 172 56 73 93 -1
1038 0 173 18 72 39 -1
1039 0 173 17 70 43 -1
1040 0 173 15 74 41 -1
1041 0 173 18 75 40 -1
1042 0 173 17 74 43 -1
1043 0 173 17 73 40 -1
1044 0 174 42 82 9 6338
1045 0 174 40 81 8 6337
1046 0 174 38 84 6 -1
1047 0 174 40 88 6 -1
1048 0 174 36 88 5 1674
1049 0 174 38 88 5 -1
1050 0 175 86 21 63 6435
1051 0 175 90 21 60 -1
1052 0 175 86 22 61 -1
1053 0 175 86 20 62 -1
1054 0 175 86 18 62 -1
1055 0 175 86 19 63 -1
1056 0 176 8 3 24 -1
1057 0 176 11 5 25 -1
1058 0 176 15 6 24 2892
1059 0 176 17 5 24 -1
1060 0 176 17 8 25 2353
1061 0 176 19 12 23 6162
1062 0 177 41 4 34 -1
1063 0 177 43 1 33 -1
1064 0 177 43 99 36 -1
1065 0 177 43 2 36 -1
1066 0 177 43 5 34 2804
1067 0 177 41 7 33 -1
1068 0 178 0 86 42 -1
1069 0 178 97 86 41 -1
1070 0 178 96 84 39 -1
1071 0 178 97 87 40 -1
1072 0 178 95 89 42 -1
1073 0 178 92 89 41 -1
1074 0 179 90 84 23 -1
1075 0 179 89 82 22 -1
1076 0 179 86 80 20 -1
1077 0 179 88 82 19 1590
1078 0 179 89 82 24 -1
1079 0 179 86 79 21 -1
1080 0 180 21 56 66 2600
1081 0 180 19 55 66 -1
1082 0 180 16 58 65 -1
1083 0 180 14 57 68 6168
1084 0 180 15 58 66 -1
1085 0 180 13 56 66 -1
1086 0 181 35 22 85 2007
1087 0 181 37 20 86 -1
1088 0 181 37 25 86 4964
1089 0 181 34 28 86 -1
1090 0 181 37 25 85 -1
1091 0 181 36 27 82 2009
1092 0 182 3 23 12 -1
1093 0 182 2 25 16 2452
1094 0 182 1 29 18 2453
1095 0 182 1 31 21 -1
1096 0 182 1 28 23 2450
1097 0 182 2 26 23 -1
1098 0 183 39 50 60 -1
1099 0 183 36 49 59 6400
1100 0 183 35 51 59 1738
1101 0 183 34 53 60 -1
1102 0 183 30 50 61 -1
1103 0 183 31 48 60 -1
1104 0 184 12 72 14 -1
1105 0 184 12 73 11 5663
1106 0 184 13 73 15 -1
1107 0 184 12 77 12 -1
1108 0 184 14 77 9 5313
1109 0 184 14 80 6 -1
1110 0 185 70 32 3 1727
1111 0 185 71 30 2 5227
1112 0 185 68 28 3 -1
1113 0 185 72 31 2 1724
1114 0 185 69 30 4 -1
1115 0 185 66 31 4 -1
1116 0 186 90 2 5 2920
1117 0 186 90 5 8 -1
1118 0 186 87 4 10 -1
1119 0 186 89 7 11 1564
1120 0 186 88 4 8 -1
1121 0 186 86 5 11 -1
1122 0 187 77 99 6 -1
1123 0 187 80 97 6 -1
1124 0 187 80 1 4 1551
1125 0 187 76 3 4 5973
1126 0 187 76 4 99 1553
1127 0 187 76 4 97 -1
1128 0 188 94 87 95 -1
1129 0 188 92 84 93 5092
1130 0 188 90 86 89 -1
1131 0 188 91 82 91 5091
1132 0 188 91 84 95 -1
1133 0 188 88 83 95 -1
1134 0 189 75 48 15 2936
1135 0 189 76 51 16 -1
1136 0 189 77 46 15 -1
1137 0 189 78 45 18 -1
1138 0 189 79 43 17 -1
1139 0 189 79 43 15 -1
1140 0 190 7 89 97 6278
1141 0 190 8 92 0 -1
1142 0 190 9 96 99 -1
1143 0 190 8 98 95 -1
1144 0 190 8 0 98 -1
1145 0 190 11 97 1 -1
1146 0 191 33 80 94 6359
1147 0 191 34 79 96 6358
1148 0 191 32 76 96 6267
1149 0 191 32 75 93 6354
1150 0 191 32 77 89 2572
1151 0 191 30 73 90 -1
1152 0 192 95 12 21 -1
1153 0 192 97 12 25 -1
1154 0 192 0 13 26 -1
1155 0 192 3 11 26 -1
1156 0 192 7 11 23 -1
1157 0 192 6 11 25 -1
1158 0 193 89 0 34 5827
1159 0 193 86 1 37 -1
1160 0 193 88 3 36 5824
1161 0 193 87 98 37 -1
1162 0 193 91 98 38 -1
1163 0 193 90 98 35 2360
1164 0 194 98 90 99 -1
1165 0 194 96 91 97 -1
1166 0 194 95 92 98 -1
1167 0 194 94 90 98 -1
1168 0 194 95 91 95 -1
1169 0 194 93 91 97 -1
1170 0 195 19 81 96 -1
1171 0 195 18 81 92 5236
1172 0 195 16 82 91 -1
1173 0 195 20 82 94 -1
1174 0 195 21 86 91 -1
1175 0 195 23 83 92 -1
1176 0 196 47 67 67 -1
1177 0 196 50 65 69 -1
1178 0 196 53 64 67 -1
1179 0 196 53 67 63 -1
1180 0 196 56 70 64 -1
1181 0 196 60 67 65 -1
1182 0 197 52 97 84 -1
1183 0 197 53 0 81 -1
1184 0 197 54 1 78 -1
1185 0 197 53 5 77 -1
1186 0 197 50 4 73 -1
1187 0 197 51 2 71 -1
1188 0 198 21 16 29 -1
1189 0 198 24 16 26 -1
1190 0 198 23 13 26 1811
1191 0 198 22 16 29 1530
1192 0 198 20 12 28 6163
1193 0 198 22 11 25 -1
1194 0 199 44 1 32 6370
1195 0 199 47 3 33 6371
1196 0 199 48 3 33 6369
1197 0 199 46 2 34 -1
1198 0 199 44 1 34 6368
1199 0 199 40 98 34 -1
1200 0 200 70 95 56 -1
1201 0 200 75 96 56 -1
1202 0 200 76 99 59 -1
1203 0 200 74 97 57 -1
1204 0 200 73 96 56 -1
1205 0 200 76 93 57 -1
1206 0 201 86 88 15 -1
1207 0 201 84 88 13 -1
1208 0 201 79 89 14 2244
1209 0 201 79 89 17 -1
1210 0 201 75 87 17 -1
1211 0 201 71 84 17 -1
1212 0 202 92 63 9 -1
1213 0 202 92 59 11 -1
1214 0 202 94 57 15 -1
1215 0 202 93 56 16 -1
1216 0 202 90 55 15 -1
1217 0 202 90 56 12 -1
1218 0 203 9 50 68 1701
1219 0 203 8 47 68 -1
1220 0 203 9 46 64 -1
1221 0 203 7 43 65 -1
1222 0 203 4 44 69 5343
1223 0 203 7 44 68 5852
1224 0 204 16 71 16 2020
1225 0 204 14 73 13 -1
1226 0 204 18 74 15 6484
1227 0 204 18 75 12 -1
1228 0 204 18 77 15 2152
1229 0 204 15 78 15 -1
1230 0 205 6 60 90 -1
1231 0 205 3 61 90 2609
1232 0 205 4 66 89 1797
1233 0 205 2 67 93 1796
1234 0 205 5 67 92 1795
1235 0 205 2 66 95 2391
1236 0 206 46 53 44 -1
1237 0 206 48 54 43 -1
1238 0 206 49 50 44 -1
1239 0 206 46 47 43 2924
1240 0 206 44 49 39 -1
1241 0 206 46 46 40 -1
1242 0 207 5 46 67 5435
1243 0 207 4 42 70 2370
1244 0 207 7 46 70 -1
1245 0 207 8 43 70 5430
1246 0 207 10 44 74 -1
1247 0 207 13 46 76 -1
1248 0 208 40 44 18 -1
1249 0 208 37 41 19 -1
1250 0 208 38 45 19 -1
1251 0 208 35 46 18 -1
1252 0 208 33 45 17 -1
1253 0 208 31 47 14 -1
1254 0 209 0 65 94 2392
1255 0 209 3 61 93 -1
1256 0 209 4 59 95 -1
1257 0 209 2 60 95 -1
1258 0 209 5 58 93 6236
1259 0 209 6 59 91 2607
1260 0 210 95 48 16 2406
1261 0 210 95 49 20 -1
1262 0 210 93 46 23 2846
1263 0 210 91 46 25 2793
1264 0 210 88 49 23 -1
1265 0 210 88 51 19 -1
1266 0 211 76 31 76 -1
1267 0 211 73 32 78 -1
1268 0 211 76 36 79 1848
1269 0 211 78 36 80 -1
1270 0 211 80 38 81 -1
1271 0 211 80 38 78 2630
1272 0 212 75 35 69 -1
1273 0 212 78 36 66 -1
1274 0 212 78 38 67 5806
1275 0 212 79 41 66 5837
1276 0 212 79 42 64 -1
1277 0 212 77 41 65 5805
1278 0 213 16 40 51 -1
1279 0 213 18 36 49 -1
1280 0 213 15 35 49 -1
1281 0 213 12 31 50 -1
1282 0 213 11 28 50 1721
1283 0 213 9 28 47 1719
1284 0 214 63 64 16 -1
1285 0 214 60 61 16 1872
1286 0 214 59 66 17 1873
1287 0 214 58 63 16 -1
1288 0 214 56 60 13 -1
1289 0 214 59 59 15 1877
1290 0 215 6 32 92 -1
1291 0 215 6 35 92 -1
1292 0 215 5 33 88 -1
1293 0 215 7 35 86 -1
1294 0 215 7 31 86 -1
1295 0 215 8 29 86 -1
1296 0 216 22 33 92 5676
1297 0 216 24 30 95 -1
1298 0 216 24 27 95 5677
1299 0 216 27 27 95 -1
1300 0 216 29 24 97 -1
1301 0 216 30 21 98 -1
1302 0 217 58 91 44 -1
1303 0 217 53 92 45 -1
1304 0 217 51 88 46 -1
1305 0 217 56 89 46 -1
1306 0 217 58 87 43 -1
1307 0 217 57 85 44 -1
1308 0 218 0 92 97 -1
1309 0 218 99 90 98 -1
1310 0 218 99 87 97 6281
1311 0 218 3 89 99 -1
1312 0 218 2 86 99 6282
1313 0 218 2 87 98 -1
1314 0 219 95 61 95 -1
1315 0 219 94 65 97 2529
1316 0 219 94 61 97 1547
1317 0 219 96 64 97 1542
1318 0 219 97 66 97 2388
1319 0 219 99 64 99 5783
1320 0 220 68 13 52 -1
1321 0 220 69 15 50 -1
1322 0 220 70 16 45 -1
1323 0 220 71 16 42 -1
1324 0 220 72 17 37 -1
1325 0 220 69 14 40 -1
1326 0 221 10 67 15 -1
1327 0 221 10 68 16 -1
1328 0 221 10 69 18 2018
1329 0 221 7 70 18 2017
1330 0 221 9 68 18 2016
1331 0 221 10 67 14 -1
1332 0 222 79 94 49 -1
1333 0 222 78 89 49 -1
1334 0 222 78 86 46 6144
1335 0 222 78 85 50 4952
1336 0 222 75 81 49 -1
1337 0 222 74 82 51 -1
1338 0 223 62 6 59 -1
1339 0 223 62 10 61 -1
1340 0 223 62 9 59 -1
1341 0 223 59 6 60 -1
1342 0 223 61 4 64 -1
1343 0 223 60 4 69 -1
1344 0 224 53 64 88 -1
1345 0 224 56 64 90 -1
1346 0 224 55 68 89 -1
1347 0 224 55 65 89 -1
1348 0 224 53 65 92 -1
1349 0 224 53 62 92 -1
1350 0 225 68 7 98 -1
1351 0 225 67 4 98 -1
1352 0 225 66 4 99 -1
1353 0 225 64 0 1 -1
1354 0 225 63 95 0 -1
1355 0 225 61 99 98 -1
1356 0 226 63 66 19 -1
1357 0 226 61 65 17 1875
1358 0 226 58 69 16 -1
1359 0 226 59 68 16 -1
1360 0 226 62 66 15 -1