ITEM: TIMESTEP
0
ITEM: NUMBER OF ATOMS
6500
ITEM: BOX BOUNDS pp pp pp
0 100
0 100
0 100
ITEM: ATOMS id type mol x y z bP
0 0 0 51 37 56 5777
1 0 0 51 40 60 4891
2 0 0 52 38 58 4887
3 0 0 48 35 57 1652
4 0 0 51 35 61 -1
5 0 0 50 31 59 2837
6 0 1 59 42 33 2020
7 0 1 56 43 34 1598
8 0 1 57 43 35 1955
9 0 1 55 47 36 5522
10 0 1 56 52 35 5188
11 0 1 55 51 31 -1
12 0 2 59 40 46 -1
13 0 2 61 37 43 2980
14 0 2 60 37 47 1981
15 0 2 63 38 50 1881
16 0 2 64 41 51 6151
17 0 2 66 42 51 6155
18 0 3 55 47 65 -1
19 0 3 56 50 66 -1
20 0 3 58 48 63 -1
21 0 3 57 47 61 -1
22 0 3 57 51 59 2763
23 0 3 54 51 56 2399
24 0 4 39 41 58 -1
25 0 4 38 45 55 -1
26 0 4 36 41 54 2054
27 0 4 37 36 54 2183
28 0 4 35 35 51 1776
29 0 4 32 34 55 6072
30 0 5 61 47 50 5321
31 0 5 63 45 53 6461
32 0 5 66 45 56 2678
33 0 5 67 48 58 2585
34 0 5 67 51 55 1739
35 0 5 67 50 54 -1
36 0 6 74 30 63 -1
37 0 6 71 29 61 -1
38 0 6 67 31 63 6226
39 0 6 71 30 62 -1
40 0 6 70 35 62 -1
41 0 6 67 39 61 2026
42 0 7 61 48 46 4947
43 0 7 64 49 45 5220
44 0 7 62 45 45 5643
45 0 7 63 48 43 1612
46 0 7 64 44 43 2252
47 0 7 68 43 45 5782
48 0 8 61 44 48 5320
49 0 8 61 40 46 5319
50 0 8 60 39 45 1792
51 0 8 61 37 47 2114
52 0 8 59 39 49 2683
53 0 8 56 40 51 -1
54 0 9 54 39 51 2085
55 0 9 58 37 50 2113
56 0 9 56 38 52 5927
57 0 9 57 42 55 5928
58 0 9 58 38 58 5575
59 0 9 58 36 56 -1
60 0 10 44 40 74 -1
61 0 10 47 40 70 -1
62 0 10 51 38 69 6104
63 0 10 53 39 65 6288
64 0 10 55 41 62 4892
65 0 10 57 43 66 5909
66 0 11 42 43 61 1941
67 0 11 43 39 63 2304
68 0 11 43 35 66 -1
69 0 11 44 36 62 2307
70 0 11 46 36 65 4961
71 0 11 50 39 66 2631
72 0 12 65 34 54 1923
73 0 12 65 35 55 5580
74 0 12 62 38 53 -1
75 0 12 63 37 55 1921
76 0 12 67 35 53 5528
77 0 12 67 31 53 2120
78 0 13 70 43 46 6350
79 0 13 67 41 46 6279
80 0 13 66 39 44 6282
81 0 13 66 40 40 -1
82 0 13 63 39 40 1863
83 0 13 67 37 41 5216
84 0 14 52 41 49 2813
85 0 14 54 39 45 2930
86 0 14 54 41 45 6142
87 0 14 55 38 41 5788
88 0 14 55 40 43 2929
89 0 14 52 41 44 2939
90 0 15 55 41 68 6035
91 0 15 57 39 67 6053
92 0 15 58 38 65 6106
93 0 15 59 37 61 2695
94 0 15 60 40 64 -1
95 0 15 64 39 66 5708
96 0 16 49 53 46 2267
97 0 16 52 50 47 5609
98 0 16 53 46 46 5106
99 0 16 52 51 45 4812
100 0 16 56 49 47 -1
101 0 16 56 50 46 5664
102 0 17 55 47 55 6000
103 0 17 57 46 54 5348
104 0 17 56 50 53 5661
105 0 17 58 47 51 5998
106 0 17 55 48 47 -1
107 0 17 58 49 48 2624
108 0 18 46 49 43 2204
109 0 18 49 49 40 2723
110 0 18 47 48 42 2643
111 0 18 46 46 45 2102
112 0 18 46 45 48 1686
113 0 18 42 46 48 6100
114 0 19 40 57 58 1510
115 0 19 37 54 58 1587
116 0 19 37 52 57 2427
117 0 19 36 53 56 2426
118 0 19 38 50 57 1586
119 0 19 35 50 57 5832
120 0 20 40 46 61 1938
121 0 20 38 49 62 -1
122 0 20 41 48 65 5028
123 0 20 38 45 63 2277
124 0 20 37 49 61 1523
125 0 20 35 51 62 2215
126 0 21 44 42 58 2241
127 0 21 44 40 57 2652
128 0 21 46 38 54 5249
129 0 21 45 43 55 -1
130 0 21 50 44 54 -1
131 0 21 51 46 55 6406
132 0 22 47 87 76 -1
133 0 22 45 88 79 -1
134 0 22 47 84 78 -1
135 0 22 50 84 77 -1
136 0 22 49 82 80 -1
137 0 22 47 81 80 -1
138 0 23 68 52 44 5978
139 0 23 71 55 42 6242
140 0 23 68 56 42 5183
141 0 23 69 52 39 4937
142 0 23 66 56 39 -1
143 0 23 68 56 37 -1
144 0 24 44 48 52 5589
145 0 24 41 50 52 5453
146 0 24 44 53 51 6116
147 0 24 40 54 51 5972
148 0 24 41 55 53 5678
149 0 24 43 59 53 -1
150 0 25 44 37 54 -1
151 0 25 42 38 53 5099
152 0 25 42 42 55 2589
153 0 25 41 42 55 2668
154 0 25 43 41 57 -1
155 0 25 41 43 56 1519
156 0 26 26 46 53 4872
157 0 26 28 46 56 -1
158 0 26 25 46 57 2788
159 0 26 23 47 57 2882
160 0 26 28 48 58 6179
161 0 26 26 47 61 -1
162 0 27 40 38 47 -1
163 0 27 41 34 49 1895
164 0 27 42 33 44 5715
165 0 27 45 30 42 5670
166 0 27 42 28 43 -1
167 0 27 43 28 44 1823
168 0 28 66 41 41 5150
169 0 28 65 43 42 -1
170 0 28 66 45 46 6477
171 0 28 65 46 49 5493
172 0 28 63 48 49 5745
173 0 28 62 46 49 6348
174 0 29 49 47 51 5584
175 0 29 51 49 54 1740
176 0 29 51 50 52 2417
177 0 29 55 49 50 -1
178 0 29 52 50 50 2097
179 0 29 48 47 49 5617
180 0 30 51 41 42 1647
181 0 30 53 39 44 6368
182 0 30 56 40 46 5790
183 0 30 57 38 47 -1
184 0 30 57 39 48 -1
185 0 30 60 38 45 1771
186 0 31 30 38 56 2563
187 0 31 27 36 59 -1
188 0 31 26 33 55 -1
189 0 31 22 33 53 -1
190 0 31 21 34 57 -1
191 0 31 19 32 60 -1
192 0 32 36 45 54 2784
193 0 32 34 47 56 1681
194 0 32 30 49 55 2787
195 0 32 31 52 52 2745
196 0 32 35 51 51 1919
197 0 32 33 48 48 2916
198 0 33 68 50 53 5739
199 0 33 68 46 56 2004
200 0 33 67 47 55 2006
201 0 33 64 48 52 6459
202 0 33 61 45 55 2370
203 0 33 61 47 52 -1
204 0 34 50 87 39 -1
205 0 34 47 87 38 -1
206 0 34 44 85 40 -1
207 0 34 45 89 40 -1
208 0 34 44 88 41 -1
209 0 34 42 87 44 -1
210 0 35 51 41 52 2797
211 0 35 52 38 50 5173
212 0 35 48 37 49 2841
213 0 35 49 35 47 -1
214 0 35 49 38 46 -1
215 0 35 53 38 49 2617
216 0 36 20 30 56 -1
217 0 36 24 33 57 -1
218 0 36 23 34 52 4927
219 0 36 23 37 51 -1
220 0 36 24 38 55 -1
221 0 36 21 38 53 4930
222 0 37 41 51 59 2973
223 0 37 41 48 63 5402
224 0 37 40 50 61 2490
225 0 37 41 50 63 5361
226 0 37 38 52 63 5866
227 0 37 35 49 63 2219
228 0 38 46 55 41 2063
229 0 38 48 52 38 -1
230 0 38 44 50 38 4756
231 0 38 43 52 34 4752
232 0 38 42 50 35 4753
233 0 38 43 48 34 4754
234 0 39 51 42 60 -1
235 0 39 55 40 61 5571
236 0 39 55 36 60 5906
237 0 39 52 33 60 2900
238 0 39 52 34 60 4886
239 0 39 56 32 61 5469
240 0 40 30 47 44 2914
241 0 40 30 47 49 6190
242 0 40 32 46 46 5794
243 0 40 28 48 45 -1
244 0 40 29 47 48 2915
245 0 40 32 48 45 1817
246 0 41 18 53 46 -1
247 0 41 22 50 45 5302
248 0 41 20 49 47 -1
249 0 41 22 51 46 -1
250 0 41 23 49 48 6188
251 0 41 24 48 53 2883
252 0 42 49 49 53 5540
253 0 42 46 47 55 6329
254 0 42 45 46 55 5073
255 0 42 45 46 59 -1
256 0 42 46 43 58 1943
257 0 42 41 44 59 2109
258 0 43 48 32 50 5444
259 0 43 46 34 47 4903
260 0 43 46 32 49 -1
261 0 43 45 36 48 -1
262 0 43 45 39 50 5062
263 0 43 42 36 50 1824
264 0 44 56 51 36 1621
265 0 44 58 48 38 1950
266 0 44 55 45 38 2521
267 0 44 50 46 37 2649
268 0 44 54 47 37 1597
269 0 44 56 50 34 -1
270 0 45 43 49 43 5942
271 0 45 42 52 44 -1
272 0 45 46 51 46 6207
273 0 45 47 50 44 -1
274 0 45 46 51 48 -1
275 0 45 44 53 47 2324
276 0 46 37 48 49 2344
277 0 46 33 47 49 -1
278 0 46 34 44 45 5691
279 0 46 33 43 47 2911
280 0 46 33 43 46 2729
281 0 46 29 44 49 6483
282 0 47 43 59 55 2171
283 0 47 44 57 57 1699
284 0 47 42 53 59 5865
285 0 47 41 51 57 2714
286 0 47 44 50 56 2107
287 0 47 46 54 57 5903
288 0 48 50 50 60 2503
289 0 48 52 48 58 6015
290 0 48 51 44 60 2165
291 0 48 52 46 63 -1
292 0 48 53 42 62 4896
293 0 48 54 40 64 2632
294 0 49 50 40 40 2362
295 0 49 51 37 42 -1
296 0 49 55 37 40 2931
297 0 49 53 41 40 6359
298 0 49 52 39 36 -1
299 0 49 54 40 39 1855
300 0 50 30 57 11 -1
301 0 50 29 55 10 -1
302 0 50 28 55 11 -1
303 0 50 26 59 13 -1
304 0 50 28 59 10 -1
305 0 50 28 61 7 -1
306 0 51 47 39 44 2808
307 0 51 44 40 43 2391
308 0 51 43 40 46 5726
309 0 51 45 40 45 4914
310 0 51 44 38 44 4915
311 0 51 47 37 47 2390
312 0 52 68 51 43 5180
313 0 52 64 50 46 6478
314 0 52 65 51 43 2381
315 0 52 66 52 43 5202
316 0 52 63 52 40 1608
317 0 52 64 54 39 4936
318 0 53 33 52 61 -1
319 0 53 36 49 60 5014
320 0 53 34 51 64 5657
321 0 53 31 49 66 -1
322 0 53 33 48 68 6044
323 0 53 36 47 68 6271
324 0 54 49 51 72 5127
325 0 54 53 50 69 -1
326 0 54 54 50 67 5132
327 0 54 54 49 72 -1
328 0 54 52 51 68 2136
329 0 54 55 47 69 -1
330 0 55 57 29 45 -1
331 0 55 57 30 45 4868
332 0 55 56 33 47 -1
333 0 55 56 36 44 2928
334 0 55 55 36 49 2084
335 0 55 58 36 51 5959
336 0 56 58 53 48 2551
337 0 56 58 50 49 4948
338 0 56 60 48 49 5607
339 0 56 61 49 50 5494
340 0 56 64 52 53 4906
341 0 56 61 55 54 2270
342 0 57 51 39 48 4860
343 0 57 49 40 49 2748
344 0 57 48 44 49 2067
345 0 57 48 45 50 -1
346 0 57 44 48 49 2103
347 0 57 43 45 50 1642
348 0 58 56 34 57 1593
349 0 58 59 34 58 1910
350 0 58 55 34 57 5032
351 0 58 57 32 56 5465
352 0 58 57 32 58 5157
353 0 58 56 35 59 1567
354 0 59 52 60 47 4921
355 0 59 49 58 47 -1
356 0 59 49 57 46 2569
357 0 59 47 55 49 1547
358 0 59 44 55 52 5680
359 0 59 40 57 51 6316
360 0 60 42 51 61 5363
361 0 60 42 52 65 5458
362 0 60 42 47 66 1697
363 0 60 40 48 66 5460
364 0 60 38 47 62 2971
365 0 60 40 45 65 2422
366 0 61 36 47 59 1680
367 0 61 34 50 61 2280
368 0 61 29 51 60 2614
369 0 61 29 51 59 5655
370 0 61 28 50 57 4854
371 0 61 25 49 59 -1
372 0 62 54 53 38 2876
373 0 62 56 50 41 2144
374 0 62 52 52 43 6386
375 0 62 51 50 42 2040
376 0 62 53 52 41 1656
377 0 62 54 54 41 2043
378 0 63 51 48 41 2443
379 0 63 55 47 41 2720
380 0 63 54 46 36 -1
381 0 63 53 50 36 2646
382 0 63 55 51 37 5649
383 0 63 58 50 34 -1
384 0 64 42 33 55 2071
385 0 64 43 30 54 5603
386 0 64 44 32 58 -1
387 0 64 46 33 59 -1
388 0 64 45 32 55 -1
389 0 64 43 35 56 2656
390 0 65 68 15 8 -1
391 0 65 72 15 6 -1
392 0 65 70 12 6 -1
393 0 65 67 10 7 -1
394 0 65 70 9 5 -1
395 0 65 69 9 8 -1
396 0 66 58 50 53 6343
397 0 66 59 45 54 -1
398 0 66 56 45 55 1670
399 0 66 56 47 52 1671
400 0 66 56 44 52 -1
401 0 66 52 45 52 -1
402 0 67 37 43 71 2210
403 0 67 41 44 69 2213
404 0 67 41 44 66 1516
405 0 67 41 43 63 1515
406 0 67 39 46 63 1715
407 0 67 37 44 59 2353
408 0 68 41 31 51 -1
409 0 68 45 32 49 -1
410 0 68 43 31 51 1752
411 0 68 38 32 51 1825
412 0 68 36 34 49 -1
413 0 68 33 36 52 2178
414 0 69 49 46 45 2968
415 0 69 51 46 43 2301
416 0 69 53 48 42 2721
417 0 69 53 50 38 6382
418 0 69 53 48 38 2769
419 0 69 53 50 34 5190
420 0 70 40 50 52 2341
421 0 70 43 48 52 -1
422 0 70 45 47 51 4994
423 0 70 41 45 50 2257
424 0 70 40 44 55 2352
425 0 70 40 42 56 2590
426 0 71 47 62 45 5479
427 0 71 50 60 48 5484
428 0 71 47 58 46 6161
429 0 71 45 56 50 4790
430 0 71 45 54 48 2572
431 0 71 45 50 46 2969
432 0 72 41 35 66 5244
433 0 72 43 37 62 -1
434 0 72 43 34 62 -1
435 0 72 46 33 65 -1
436 0 72 43 33 66 4829
437 0 72 44 37 65 -1
438 0 73 49 40 59 1675
439 0 73 49 41 58 6295
440 0 73 50 39 62 5069
441 0 73 50 41 64 1850
442 0 73 50 44 63 1853
443 0 73 48 44 60 -1
444 0 74 59 44 34 2670
445 0 74 63 45 34 2961
446 0 74 64 46 36 -1
447 0 74 66 44 38 4824
448 0 74 64 47 41 1787
449 0 74 66 44 39 5785
450 0 75 46 51 52 5381
451 0 75 49 53 52 6047
452 0 75 46 54 54 -1
453 0 75 48 54 55 5327
454 0 75 50 54 58 4942
455 0 75 49 50 55 -1
456 0 76 67 31 38 -1
457 0 76 63 31 39 -1
458 0 76 62 33 43 2857
459 0 76 62 34 42 2861
460 0 76 59 35 45 1793
461 0 76 63 34 47 5280
462 0 77 45 44 46 2577
463 0 77 44 45 49 5616
464 0 77 45 42 52 2996
465 0 77 42 43 53 2667
466 0 77 42 42 51 -1
467 0 77 43 38 54 1780
468 0 78 99 75 6 -1
469 0 78 1 78 5 -1
470 0 78 2 76 1 -1
471 0 78 2 75 5 -1
472 0 78 99 78 5 -1
473 0 78 96 79 7 -1
474 0 79 70 46 48 -1
475 0 79 68 45 48 -1
476 0 79 69 42 47 -1
477 0 79 70 40 47 -1
478 0 79 68 39 49 2941
479 0 79 67 39 52 -1
480 0 80 49 38 47 2578
481 0 80 46 37 47 1999
482 0 80 44 36 43 -1
483 0 80 45 33 47 4959
484 0 80 45 30 46 5671
485 0 80 45 31 42 -1
486 0 81 46 38 64 2320
487 0 81 45 40 60 1676
488 0 81 46 38 59 2871
489 0 81 50 35 60 2899
490 0 81 51 35 57 6091
491 0 81 52 40 57 1568
492 0 82 61 37 55 -1
493 0 82 65 40 54 -1
494 0 82 67 41 52 2009
495 0 82 67 36 51 5276
496 0 82 67 34 50 6201
497 0 82 64 35 49 1878
498 0 83 31 48 56 5834
499 0 83 34 52 56 2282
500 0 83 36 56 56 5207
501 0 83 37 51 57 2974
502 0 83 37 54 55 -1
503 0 83 38 57 58 5971
504 0 84 57 39 53 -1
505 0 84 54 42 54 6198
506 0 84 49 42 53 5559
507 0 84 47 42 55 5599
508 0 84 45 40 57 1971
509 0 84 49 43 57 4776
510 0 85 68 53 46 -1
511 0 85 67 56 50 -1
512 0 85 68 52 52 5748
513 0 85 68 49 48 5258
514 0 85 67 52 51 -1
515 0 85 68 53 49 4952
516 0 86 65 39 52 1789
517 0 86 65 39 53 2130
518 0 86 64 36 52 1773
519 0 86 64 36 54 2131
520 0 86 64 35 53 -1
521 0 86 63 36 53 1880
522 0 87 59 31 57 1925
523 0 87 54 32 56 4885
524 0 87 51 32 54 6093
525 0 87 48 32 54 4901
526 0 87 45 32 56 1753
527 0 87 40 31 57 5399
528 0 88 66 44 41 -1
529 0 88 67 44 38 -1
530 0 88 68 47 42 5392
531 0 88 67 46 44 6008
532 0 88 67 51 43 6243
533 0 88 64 52 47 4996
534 0 89 47 54 52 2262
535 0 89 47 53 56 2436
536 0 89 45 55 54 2334
537 0 89 42 52 52 4991
538 0 89 44 56 50 4791
539 0 89 42 54 48 5168
540 0 90 56 23 58 -1
541 0 90 54 26 57 -1
542 0 90 56 25 54 -1
543 0 90 58 21 55 -1
544 0 90 58 20 54 -1
545 0 90 59 22 54 -1
546 0 91 56 30 62 4889
547 0 91 52 28 60 -1
548 0 91 54 31 58 4884
549 0 91 54 35 55 6215
550 0 91 52 35 56 6075
551 0 91 52 30 57 5158
552 0 92 36 49 54 2340
553 0 92 38 47 56 4990
554 0 92 38 43 58 1682
555 0 92 36 42 62 2735
556 0 92 40 41 59 -1
557 0 92 42 41 57 1677
558 0 93 48 43 40 1665
559 0 93 52 45 41 1667
560 0 93 50 44 40 6264
561 0 93 49 45 42 2524
562 0 93 51 44 46 2574
563 0 93 54 42 47 5314
564 0 94 36 56 50 2290
565 0 94 39 57 50 2169
566 0 94 40 57 53 2167
567 0 94 39 59 49 -1
568 0 94 41 56 48 6315
569 0 94 42 59 45 6390
570 0 95 48 33 50 6170
571 0 95 44 33 52 1828
572 0 95 45 32 51 5710
573 0 95 43 28 52 -1
574 0 95 44 31 53 2072
575 0 95 44 31 54 1650
576 0 96 32 21 57 -1
577 0 96 32 25 55 -1
578 0 96 34 23 52 -1
579 0 96 38 22 52 -1
580 0 96 41 22 55 -1
581 0 96 39 22 51 -1
582 0 97 45 41 46 4858
583 0 97 43 43 48 6330
584 0 97 43 45 51 5855
585 0 97 41 44 54 5064
586 0 97 39 44 54 5854
587 0 97 38 45 56 1949
588 0 98 41 38 45 2461
589 0 98 43 41 43 2462
590 0 98 44 38 43 -1
591 0 98 43 35 40 2532
592 0 98 41 36 38 1705
593 0 98 41 39 37 -1
594 0 99 39 52 68 5867
595 0 99 39 47 67 6042
596 0 99 43 48 65 5406
597 0 99 41 46 61 -1
598 0 99 45 47 62 2494
599 0 99 45 47 65 1693
600 0 100 48 46 52 2069
601 0 100 47 48 49 -1
602 0 100 48 45 53 1928
603 0 100 50 49 54 5588
604 0 100 53 50 51 2662
605 0 100 57 51 52 5663
606 0 101 46 45 41 -1
607 0 101 44 44 38 -1
608 0 101 48 45 40 -1
609 0 101 50 43 42 1555
610 0 101 52 40 41 1644
611 0 101 50 42 39 2017
612 0 102 45 35 50 5503
613 0 102 48 34 53 4857
614 0 102 49 36 50 1998
615 0 102 48 39 51 2484
616 0 102 50 40 52 6079
617 0 102 52 40 54 6074
618 0 103 37 40 47 5368
619 0 103 38 40 51 5813
620 0 103 35 39 48 6095
621 0 103 31 41 50 2865
622 0 103 29 40 52 2248
623 0 103 30 39 53 -1
624 0 104 38 10 9 -1
625 0 104 38 14 6 -1
626 0 104 35 12 5 -1
627 0 104 38 12 4 -1
628 0 104 38 9 3 -1
629 0 104 39 10 3 -1
630 0 105 38 46 44 5729
631 0 105 38 49 46 4802
632 0 105 34 48 49 2917
633 0 105 36 46 51 1916
634 0 105 37 46 46 5090
635 0 105 41 43 47 -1
636 0 106 53 41 42 -1
637 0 106 54 43 41 6137
638 0 106 51 47 42 1663
639 0 106 53 48 41 -1
640 0 106 53 46 44 -1
641 0 106 50 43 44 1666
642 0 107 49 41 43 2016
643 0 107 49 41 48 2198
644 0 107 49 44 44 6254
645 0 107 45 41 43 -1
646 0 107 42 37 42 -1
647 0 107 41 42 43 5725
648 0 108 58 35 49 2118
649 0 108 61 37 48 1635
650 0 108 60 35 45 1982
651 0 108 56 35 46 1633
652 0 108 55 35 43 5822
653 0 108 59 32 44 -1
654 0 109 33 41 64 -1
655 0 109 36 43 62 -1
656 0 109 35 47 59 2283
657 0 109 35 46 56 2737
658 0 109 33 44 57 2285
659 0 109 32 42 56 5148
660 0 110 36 42 52 2055
661 0 110 35 44 56 1533
662 0 110 33 45 57 1531
663 0 110 36 41 58 2591
664 0 110 39 42 54 2052
665 0 110 38 42 53 2665
666 0 111 57 34 54 -1
667 0 111 53 35 53 -1
668 0 111 56 34 54 5070
669 0 111 55 34 59 5160
670 0 111 53 31 58 4763
671 0 111 55 32 56 5930
672 0 112 49 35 58 1651
673 0 112 47 37 54 2832
674 0 112 45 39 58 5094
675 0 112 45 41 60 2318
676 0 112 48 42 61 1800
677 0 112 46 41 57 2110
678 0 113 40 44 46 5591
679 0 113 44 45 43 2205
680 0 113 46 41 43 2838
681 0 113 45 45 41 2810
682 0 113 48 46 45 -1
683 0 113 47 43 48 2576
684 0 114 35 40 51 5885
685 0 114 33 39 52 6069
686 0 114 36 41 49 2739
687 0 114 36 44 46 -1
688 0 114 38 41 48 1639
689 0 114 35 45 47 2921
690 0 115 35 42 51 2738
691 0 115 34 44 52 5914
692 0 115 32 46 48 -1
693 0 115 31 47 53 5110
694 0 115 30 50 51 5477
695 0 115 29 50 51 2598
696 0 116 41 49 63 6272
697 0 116 40 48 60 1947
698 0 116 40 47 60 1714
699 0 116 42 46 63 1692
700 0 116 42 46 64 2492
701 0 116 44 46 63 5290
702 0 117 52 56 46 1546
703 0 117 52 55 47 2776
704 0 117 48 56 47 4788
705 0 117 51 59 49 -1
706 0 117 55 59 47 -1
707 0 117 53 56 46 2775
708 0 118 26 52 45 6361
709 0 118 27 52 48 5798
710 0 118 31 54 48 1814
711 0 118 32 57 48 2291
712 0 118 33 57 47 1896
713 0 118 29 55 49 1897
714 0 119 50 35 45 2000
715 0 119 54 37 47 1634
716 0 119 54 39 48 5176
717 0 119 55 41 45 5932
718 0 119 53 42 43 -1
719 0 119 57 39 42 1770
720 0 120 43 49 60 1713
721 0 120 42 53 58 5974
722 0 120 42 53 57 5335
723 0 120 41 57 56 1588
724 0 120 42 56 52 5994
725 0 120 39 58 52 5993
726 0 121 56 33 50 -1
727 0 121 55 34 46 2112
728 0 121 52 35 49 5446
729 0 121 52 39 52 6076
730 0 121 52 43 52 5561
731 0 121 54 43 48 5172
732 0 122 53 47 42 -1
733 0 122 49 46 41 5525
734 0 122 52 46 44 2442
735 0 122 54 50 43 6380
736 0 122 51 52 41 2142
737 0 122 46 53 40 2691
738 0 123 50 39 43 -1
739 0 123 51 41 46 5140
740 0 123 49 42 47 1931
741 0 123 47 40 44 2579
742 0 123 49 41 46 4859
743 0 123 53 44 46 5175
744 0 124 47 56 50 4789
745 0 124 51 53 51 5329
746 0 124 50 50 51 6421
747 0 124 50 48 52 1742
748 0 124 48 47 53 5735
749 0 124 52 45 51 -1
750 0 125 47 39 45 2840
751 0 125 49 35 43 -1
752 0 125 51 37 44 -1
753 0 125 50 37 48 6336
754 0 125 47 34 50 5713
755 0 125 44 38 51 1756
756 0 126 45 51 48 2322
757 0 126 43 52 48 6391
758 0 126 47 54 50 2573
759 0 126 43 56 52 2264
760 0 126 42 53 55 1702
761 0 126 45 53 54 5679
762 0 127 57 51 40 5651
763 0 127 60 50 43 -1
764 0 127 58 46 43 -1
765 0 127 56 44 44 6140
766 0 127 56 44 43 5789
767 0 127 58 47 40 4934
768 0 128 43 46 47 2206
769 0 128 40 50 46 -1
770 0 128 36 48 44 2913
771 0 128 34 48 45 2912
772 0 128 38 49 44 5089
773 0 128 41 48 45 5504
774 0 129 40 46 51 1643
775 0 129 43 46 51 5353
776 0 129 40 45 50 6099
777 0 129 43 42 53 2031
778 0 129 42 45 51 -1
779 0 129 38 44 50 1915
780 0 130 68 35 49 -1
781 0 130 67 37 46 6473
782 0 130 62 38 47 2981
783 0 130 65 35 45 2858
784 0 130 65 34 47 2122
785 0 130 69 33 45 -1
786 0 131 48 43 64 -1
787 0 131 48 41 60 6428
788 0 131 48 43 61 1942
789 0 131 49 45 57 1745
790 0 131 48 46 57 2760
791 0 131 50 47 53 -1
792 0 132 61 50 38 4847
793 0 132 60 54 38 2673
794 0 132 57 54 39 5652
795 0 132 57 55 44 1992
796 0 132 53 53 43 -1
797 0 132 53 48 43 2770
798 0 133 50 41 54 1674
799 0 133 51 41 55 6195
800 0 133 51 42 58 1655
801 0 133 47 44 60 1846
802 0 133 51 47 61 5803
803 0 133 50 47 63 2507
804 0 134 46 49 47 -1
805 0 134 44 49 46 5948
806 0 134 48 50 48 -1
807 0 134 47 46 48 -1
808 0 134 52 46 47 2804
809 0 134 49 47 48 2416
810 0 135 58 36 44 6372
811 0 135 56 38 45 2932
812 0 135 56 40 47 2684
813 0 135 52 42 45 2807
814 0 135 48 44 46 5355
815 0 135 48 41 48 2066
816 0 136 43 42 46 2392
817 0 136 39 41 43 5372
818 0 136 42 42 46 2152
819 0 136 39 44 43 6125
820 0 136 41 45 43 2105
821 0 136 42 44 46 5505
822 0 137 48 31 51 2834
823 0 137 45 30 53 2074
824 0 137 45 32 50 -1
825 0 137 48 35 50 2486
826 0 137 50 37 51 2597
827 0 137 46 37 48 -1
828 0 138 76 46 33 -1
829 0 138 73 43 34 -1
830 0 138 69 45 35 5440
831 0 138 70 44 40 6007
832 0 138 68 41 43 -1
833 0 138 72 42 40 1782
834 0 139 51 42 59 -1
835 0 139 54 42 59 6193
836 0 139 57 44 58 2897
837 0 139 59 44 60 2230
838 0 139 61 44 59 5264
839 0 139 64 47 57 6463
840 0 140 40 42 52 2999
841 0 140 41 40 54 5812
842 0 140 39 41 50 5269
843 0 140 38 43 47 6128
844 0 140 35 44 50 2740
845 0 140 35 41 54 5886
846 0 141 64 41 60 -1
847 0 141 61 39 61 2697
848 0 141 60 35 58 2696
849 0 141 61 35 57 2698
850 0 141 65 36 58 6176
851 0 141 63 34 60 5033
852 0 142 45 55 52 2263
853 0 142 45 54 54 5334
854 0 142 44 52 53 5434
855 0 142 43 53 54 2956
856 0 142 41 55 51 5435
857 0 142 41 59 49 5432
858 0 143 50 58 50 2223
859 0 143 45 58 49 2265
860 0 143 41 58 52 5165
861 0 143 41 58 55 1698
862 0 143 42 57 59 -1
863 0 143 44 56 61 5332
864 0 144 48 53 55 4943
865 0 144 48 49 52 2261
866 0 144 47 51 54 5539
867 0 144 48 49 53 5382
868 0 144 50 48 50 6456
869 0 144 50 52 47 2042
870 0 145 34 97 27 -1
871 0 145 33 97 23 6019
872 0 145 35 95 19 6018
873 0 145 31 94 18 -1
874 0 145 30 99 17 -1
875 0 145 29 1 17 -1
876 0 146 69 50 43 5980
877 0 146 67 46 41 5199
878 0 146 66 47 42 5873
879 0 146 67 45 43 -1
880 0 146 66 44 43 1861
881 0 146 64 42 46 1860
882 0 147 60 39 64 6081
883 0 147 59 39 59 5637
884 0 147 57 37 57 5286
885 0 147 58 33 56 -1
886 0 147 59 37 54 2893
887 0 147 60 35 57 -1
888 0 148 33 52 51 2992
889 0 148 34 51 48 1815
890 0 148 37 51 51 -1
891 0 148 40 49 49 1641
892 0 148 43 49 49 2259
893 0 148 46 47 47 1688
894 0 149 35 40 53 5888
895 0 149 32 39 54 6071
896 0 149 32 37 51 -1
897 0 149 34 38 52 -1
898 0 149 36 35 55 -1
899 0 149 39 36 51 2182
900 0 150 63 48 58 -1
901 0 150 62 48 59 6235
902 0 150 61 47 59 2583
903 0 150 60 46 61 2764
904 0 150 58 47 58 1672
905 0 150 58 45 56 1673
906 0 151 52 51 57 -1
907 0 151 50 52 59 2226
908 0 151 52 52 56 -1
909 0 151 50 53 52 2098
910 0 151 53 54 51 6455
911 0 151 57 52 50 5386
912 0 152 49 43 32 2650
913 0 152 53 43 33 5523
914 0 152 50 45 34 4977
915 0 152 51 42 38 6263
916 0 152 50 44 35 -1
917 0 152 46 45 35 -1
918 0 153 48 31 46 5712
919 0 153 48 28 48 5445
920 0 153 47 33 48 2843
921 0 153 46 34 48 2487
922 0 153 45 36 46 -1
923 0 153 47 35 48 4902
924 0 154 46 45 54 6305
925 0 154 51 45 53 2796
926 0 154 54 42 55 6197
927 0 154 52 45 58 6405
928 0 154 56 47 58 6014
929 0 154 60 50 59 5626
930 0 155 55 42 53 2087
931 0 155 54 41 49 2805
932 0 155 55 44 49 2400
933 0 155 51 45 49 2401
934 0 155 53 44 52 6001
935 0 155 52 45 50 5736
936 0 156 49 45 45 -1
937 0 156 53 44 47 2686
938 0 156 50 45 50 6334
939 0 156 47 45 51 -1
940 0 156 47 47 53 5104
941 0 156 51 47 52 6435
942 0 157 42 38 40 -1
943 0 157 40 40 42 6124
944 0 157 39 43 44 6126
945 0 157 37 41 44 -1
946 0 157 41 42 45 5950
947 0 157 37 41 46 6097
948 0 158 65 45 53 -1
949 0 158 64 42 49 5223
950 0 158 63 39 53 2011
951 0 158 63 39 57 -1
952 0 158 58 40 57 2051
953 0 158 59 41 54 5633
954 0 159 32 45 45 5595
955 0 159 34 43 49 2919
956 0 159 34 46 52 1534
957 0 159 37 46 51 5047
958 0 159 37 50 54 5015
959 0 159 34 48 52 5455
960 0 160 35 56 67 2469
961 0 160 34 58 64 2951
962 0 160 35 57 59 2989
963 0 160 35 59 60 2295
964 0 160 36 59 64 -1
965 0 160 37 55 65 2496
966 0 161 54 93 2 -1
967 0 161 54 95 4 -1
968 0 161 54 95 6 -1
969 0 161 56 98 6 2605
970 0 161 53 96 7 -1
971 0 161 57 96 4 -1
972 0 162 46 41 55 5357
973 0 162 47 39 56 -1
974 0 162 43 39 53 2028
975 0 162 47 38 52 2982
976 0 162 46 43 53 2240
977 0 162 45 45 57 6310
978 0 163 71 47 44 -1
979 0 163 69 50 44 5495
980 0 163 65 48 43 1610
981 0 163 63 49 39 -1
982 0 163 65 49 37 -1
983 0 163 65 52 34 -1
984 0 164 55 31 52 -1
985 0 164 54 32 49 5449
986 0 164 56 34 48 2383
987 0 164 54 35 50 -1
988 0 164 55 34 48 2386
989 0 164 56 32 48 4863
990 0 165 55 42 39 1857
991 0 165 57 43 39 2298
992 0 165 60 42 37 5962
993 0 165 63 43 38 5217
994 0 165 67 46 38 6006
995 0 165 65 45 37 2478
996 0 166 49 52 44 -1
997 0 166 46 56 44 -1
998 0 166 47 61 43 5234
999 0 166 46 64 43 5480
1000 0 166 46 61 43 2568
1001 0 166 46 59 45 5384
1002 0 167 37 52 55 2439
1003 0 167 36 55 53 2166
1004 0 167 33 56 51 -1
1005 0 167 34 56 52 5210
1006 0 167 34 55 49 2289
1007 0 167 35 54 48 2743
1008 0 168 73 43 36 6134
1009 0 168 71 42 35 -1
1010 0 168 68 43 38 5565
1011 0 168 68 46 42 -1
1012 0 168 70 43 42 -1
1013 0 168 67 45 40 1783
1014 0 169 31 41 48 6096
1015 0 169 33 42 51 -1
1016 0 169 34 43 53 5829
1017 0 169 35 42 53 2566
1018 0 169 37 40 55 5881
1019 0 169 34 43 57 1683
1020 0 170 41 53 49 5433
1021 0 170 41 49 51 6431
1022 0 170 41 50 54 5454
1023 0 170 37 50 53 4880
1024 0 170 32 49 52 2746
1025 0 170 33 49 54 -1
1026 0 171 54 48 45 5138
1027 0 171 51 46 46 2927
1028 0 171 47 43 46 2575
1029 0 171 44 43 44 2065
1030 0 171 41 41 46 2465
1031 0 171 45 39 47 2839
1032 0 172 53 38 69 5420
1033 0 172 50 39 71 6105
1034 0 172 50 39 73 -1
1035 0 172 47 39 75 -1
1036 0 172 45 40 72 4832
1037 0 172 41 38 70 1517
1038 0 173 46 58 50 5481
1039 0 173 48 56 50 2335
1040 0 173 51 52 51 5733
1041 0 173 50 56 48 4786
1042 0 173 50 55 44 2693
1043 0 173 51 55 48 4808
1044 0 174 53 43 41 1645
1045 0 174 53 46 40 1557
1046 0 174 55 50 41 1951
1047 0 174 52 54 42 5648
1048 0 174 55 54 43 2771
1049 0 174 58 52 43 4838
1050 0 175 47 53 60 -1
1051 0 175 52 53 61 2315
1052 0 175 49 56 58 2348
1053 0 175 50 58 61 5684
1054 0 175 52 54 62 -1
1055 0 175 51 58 63 -1
1056 0 176 38 53 51 5992
1057 0 176 38 51 48 -1
1058 0 176 37 51 45 -1
1059 0 176 34 52 47 -1
1060 0 176 36 50 51 4879
1061 0 176 37 50 56 2355
1062 0 177 40 29 45 4955
1063 0 177 42 32 45 -1
1064 0 177 43 33 49 2489
1065 0 177 43 31 47 5714
1066 0 177 42 34 49 4956
1067 0 177 42 36 52 5248
1068 0 178 43 32 40 5672
1069 0 178 39 33 39 -1
1070 0 178 39 37 42 6098
1071 0 178 38 36 46 -1
1072 0 178 42 38 47 1891
1073 0 178 42 41 45 2809
1074 0 179 32 44 43 -1
1075 0 179 32 45 41 -1
1076 0 179 31 43 42 2602
1077 0 179 28 45 44 2453
1078 0 179 27 44 46 5475
1079 0 179 26 46 48 2076
1080 0 180 48 54 54 -1
1081 0 180 48 53 56 5535
1082 0 180 50 52 53 5536
1083 0 180 53 53 49 1543
1084 0 180 53 52 51 6342
1085 0 180 53 50 47 6417
1086 0 181 39 26 99 -1
1087 0 181 41 23 0 -1
1088 0 181 43 23 98 -1
1089 0 181 44 26 96 -1
1090 0 181 42 23 96 -1
1091 0 181 42 26 96 -1
1092 0 182 46 54 60 -1
1093 0 182 49 53 60 4945
1094 0 182 49 50 57 6308
1095 0 182 46 47 54 -1
1096 0 182 48 43 53 2702
1097 0 182 46 42 51 2983
1098 0 183 54 52 61 2314
1099 0 183 53 54 57 5686
1100 0 183 57 53 56 -1
1101 0 183 54 53 54 2658
1102 0 183 51 51 51 6454
1103 0 183 55 48 52 5102
1104 0 184 43 35 52 2070
1105 0 184 45 34 51 1781
1106 0 184 42 33 51 -1
1107 0 184 39 30 48 4954
1108 0 184 40 32 47 1821
1109 0 184 38 31 47 1822
1110 0 185 43 40 32 2358
1111 0 185 42 38 35 -1
1112 0 185 42 38 38 1875
1113 0 185 41 39 35 5018
1114 0 185 46 39 35 2359
1115 0 185 50 39 38 6249
1116 0 186 52 48 36 1859
1117 0 186 53 52 35 1727
1118 0 186 55 52 38 -1
1119 0 186 53 52 39 2766
1120 0 186 49 54 39 2878
1121 0 186 50 57 43 -1
1122 0 187 60 50 46 4814
1123 0 187 60 52 46 2622
1124 0 187 57 52 47 2663
1125 0 187 60 50 45 -1
1126 0 187 60 47 47 5375
1127 0 187 59 47 43 1935
1128 0 188 39 47 43 5593
1129 0 188 42 45 40 4801
1130 0 188 43 41 40 1874
1131 0 188 44 44 39 -1
1132 0 188 43 47 41 2060
1133 0 188 47 47 40 2642
1134 0 189 34 39 64 2274
1135 0 189 35 40 59 5880
1136 0 189 32 39 59 2562
1137 0 189 36 38 62 5146
1138 0 189 38 42 62 5003
1139 0 189 41 44 61 2279
1140 0 190 48 46 51 1927
1141 0 190 47 43 47 2414
1142 0 190 49 42 50 2454
1143 0 190 49 42 51 2965
1144 0 190 48 44 48 -1
1145 0 190 52 45 45 2402
1146 0 191 42 43 54 5853
1147 0 191 46 45 53 5358
1148 0 191 43 43 56 -1
1149 0 191 47 43 53 5558
1150 0 191 43 43 55 1518
1151 0 191 42 44 56 -1
1152 0 192 59 39 43 4973
1153 0 192 60 43 41 1795
1154 0 192 61 43 39 -1
1155 0 192 61 38 40 1794
1156 0 192 63 37 42 4766
1157 0 192 62 37 42 1760
1158 0 193 39 35 57 -1
1159 0 193 42 37 56 5095
1160 0 193 42 37 59 -1
1161 0 193 40 34 57 2515
1162 0 193 38 32 54 2181
1163 0 193 40 34 58 2530
1164 0 194 41 34 56 5397
1165 0 194 40 33 52 1757
1166 0 194 40 36 49 -1
1167 0 194 41 39 49 5270
1168 0 194 42 37 47 4913
1169 0 194 39 39 45 1830
1170 0 195 42 42 57 5851
1171 0 195 38 43 54 2354
1172 0 195 39 46 52 -1
1173 0 195 37 47 49 2724
1174 0 195 39 43 47 -1
1175 0 195 39 44 44 5694
1176 0 196 45 98 78 -1
1177 0 196 48 99 81 -1
1178 0 196 46 1 80 -1
1179 0 196 43 2 84 -1
1180 0 196 41 98 85 -1
1181 0 196 38 95 85 -1
1182 0 197 58 51 33 1660
1183 0 197 58 52 34 1658
1184 0 197 56 51 38 1596
1185 0 197 56 49 36 2845
1186 0 197 58 51 38 2904
1187 0 197 60 48 38 1932
1188 0 198 56 39 57 5574
1189 0 198 60 39 57 5703
1190 0 198 59 35 54 5162
1191 0 198 57 33 51 2083
1192 0 198 54 30 52 1888
1193 0 198 52 31 54 4761
1194 0 199 31 40 55 2586
1195 0 199 28 40 56 -1
1196 0 199 26 37 56 -1
1197 0 199 23 40 57 -1
1198 0 199 20 38 54 4931
1199 0 199 21 34 56 -1
1200 0 200 53 44 54 2459
1201 0 200 52 46 58 1840
1202 0 200 52 50 57 2502
1203 0 200 49 52 58 5682
1204 0 200 50 55 54 5330
1205 0 200 46 56 56 5904
1206 0 201 43 50 61 1695
1207 0 201 39 49 63 5459
1208 0 201 42 51 65 -1
1209 0 201 43 46 64 2418
1210 0 201 44 47 64 5938
1211 0 201 41 51 65 6039
1212 0 202 53 46 41 2446
1213 0 202 51 45 39 -1
1214 0 202 51 44 40 2523
1215 0 202 51 40 39 -1
1216 0 202 48 40 37 2360
1217 0 202 47 39 42 -1
1218 0 203 63 43 24 -1
1219 0 203 63 46 27 6232
1220 0 203 66 45 30 2960
1221 0 203 67 48 33 6228
1222 0 203 63 50 35 2190
1223 0 203 59 48 35 2844
1224 0 204 67 51 48 5256
1225 0 204 67 53 46 5181
1226 0 204 68 54 51 1549
1227 0 204 67 57 49 -1
1228 0 204 66 58 48 1628
1229 0 204 64 56 51 1550
1230 0 205 56 94 21 -1
1231 0 205 58 90 19 -1
1232 0 205 60 89 23 -1
1233 0 205 58 91 25 -1
1234 0 205 61 89 27 -1
1235 0 205 62 84 26 -1
1236 0 206 45 41 48 2704
1237 0 206 43 38 49 5370
1238 0 206 40 39 50 -1
1239 0 206 38 38 48 5369
1240 0 206 35 39 47 5692
1241 0 206 36 43 46 2918
1242 0 207 49 50 44 2689
1243 0 207 51 49 40 2722
1244 0 207 52 51 37 2879
1245 0 207 55 50 37 2444
1246 0 207 53 51 37 1725
1247 0 207 49 53 38 1906
1248 0 208 52 35 59 -1
1249 0 208 52 37 60 -1
1250 0 208 50 38 61 -1
1251 0 208 53 35 62 1566
1252 0 208 55 37 63 5068
1253 0 208 57 35 67 6061
1254 0 209 65 47 44 -1
1255 0 209 69 47 43 5496
1256 0 209 70 47 44 5981
1257 0 209 69 45 45 5203
1258 0 209 70 47 43 6009
1259 0 209 71 47 43 -1
1260 0 210 59 47 46 -1
1261 0 210 63 49 48 5374
1262 0 210 63 51 50 5351
1263 0 210 64 50 51 -1
1264 0 210 62 47 53 5350
1265 0 210 62 45 51 -1
1266 0 211 60 41 34 2021
1267 0 211 58 45 34 2671
1268 0 211 61 43 37 2195
1269 0 211 62 40 38 -1
1270 0 211 64 44 36 2710
1271 0 211 63 42 39 2708
1272 0 212 54 40 42 6139
1273 0 212 56 39 38 6358
1274 0 212 57 44 39 5966
1275 0 212 58 46 42 -1
1276 0 212 54 45 44 2447
1277 0 212 53 48 40 1724
1278 0 213 46 49 60 5899
1279 0 213 49 50 61 5547
1280 0 213 52 51 60 5801
1281 0 213 52 50 65 -1
1282 0 213 51 51 67 5124
1283 0 213 52 50 67 5508
1284 0 214 60 53 50 4795
1285 0 214 60 49 51 5376
1286 0 214 58 49 51 2556
1287 0 214 60 50 54 1959
1288 0 214 65 50 55 5738
1289 0 214 64 49 52 5747
1290 0 215 32 47 61 4849
1291 0 215 33 43 58 5143
1292 0 215 33 45 60 5147
1293 0 215 34 44 65 -1