LAMMPS Description

6000	atoms
10000	bonds
0	angles
0	dihedrals
0	impropers

6	atom types
1	bond types
0	angle types

0 100 xlo xhi
0 100 ylo yhi
0 100 zlo zhi

Masses

1	1.0
2	1.0
3	1.0
4	1.0
5	1.0
6	1.0

Atoms

0 0 0 0.0 89 5 6
1 0 0 0.0 86 5 6
2 0 0 0.0 86 4 7
3 0 0 0.0 86 3 4
4 0 0 0.0 87 2 5
5 1 0 0.0 71 36 48
6 1 0 0.0 68 37 46
7 1 0 0.0 70 39 49
8 1 0 0.0 68 38 48
9 1 0 0.0 70 38 50
10 2 0 0.0 35 20 73
11 2 0 0.0 38 21 73
12 2 0 0.0 39 22 72
13 2 0 0.0 42 23 75
14 2 0 0.0 39 24 76
15 3 0 0.0 79 86 50
16 3 0 0.0 76 85 52
17 3 0 0.0 73 82 54
18 3 0 0.0 71 85 52
19 3 0 0.0 69 87 49
20 4 0 0.0 29 37 63
21 4 0 0.0 32 37 62
22 4 0 0.0 35 35 62
23 4 0 0.0 36 38 63
24 4 0 0.0 38 39 63
25 5 0 0.0 73 15 92
26 5 0 0.0 72 16 91
27 5 0 0.0 75 16 88
28 5 0 0.0 75 16 89
29 5 0 0.0 72 16 88
30 6 0 0.0 12 18 34
31 6 0 0.0 13 18 36
32 6 0 0.0 15 19 38
33 6 0 0.0 17 20 41
34 6 0 0.0 14 22 39
35 7 0 0.0 95 88 35
36 7 0 0.0 96 91 32
37 7 0 0.0 93 92 34
38 7 0 0.0 92 93 31
39 7 0 0.0 92 96 31
40 8 0 0.0 69 85 9
41 8 0 0.0 68 84 6
42 8 0 0.0 69 86 5
43 8 0 0.0 71 87 8
44 8 0 0.0 69 84 8
45 9 0 0.0 94 48 91
46 9 0 0.0 94 47 88
47 9 0 0.0 95 47 85
48 9 0 0.0 92 44 87
49 9 0 0.0 95 44 90
50 10 0 0.0 30 40 95
51 10 0 0.0 30 39 97
52 10 0 0.0 27 38 95
53 10 0 0.0 26 40 96
54 10 0 0.0 25 41 98
55 11 0 0.0 73 96 59
56 11 0 0.0 76 97 57
57 11 0 0.0 79 95 56
58 11 0 0.0 78 94 57
59 11 0 0.0 76 92 58
60 12 0 0.0 34 15 32
61 12 0 0.0 37 18 32
62 12 0 0.0 34 20 29
63 12 0 0.0 31 20 32
64 12 0 0.0 32 23 34
65 13 0 0.0 89 56 11
66 13 0 0.0 87 59 8
67 13 0 0.0 88 56 8
68 13 0 0.0 89 58 5
69 13 0 0.0 90 61 2
70 14 0 0.0 78 90 6
71 14 0 0.0 79 90 3
72 14 0 0.0 76 89 4
73 14 0 0.0 79 86 2
74 14 0 0.0 79 89 1
75 15 0 0.0 19 51 65
76 15 0 0.0 17 53 65
77 15 0 0.0 16 50 62
78 15 0 0.0 15 48 64
79 15 0 0.0 17 45 61
80 16 0 0.0 30 99 23
81 16 0 0.0 30 1 24
82 16 0 0.0 27 4 22
83 16 0 0.0 25 7 20
84 16 0 0.0 27 5 23
85 17 0 0.0 48 83 92
86 17 0 0.0 51 83 92
87 17 0 0.0 52 83 90
88 17 0 0.0 53 83 87
89 17 0 0.0 56 81 85
90 18 0 0.0 80 88 34
91 18 0 0.0 78 90 33
92 18 0 0.0 80 87 36
93 18 0 0.0 81 85 35
94 18 0 0.0 83 82 34
95 19 0 0.0 33 97 88
96 19 0 0.0 33 95 87
97 19 0 0.0 35 94 87
98 19 0 0.0 38 91 85
99 19 0 0.0 36 94 87
100 20 0 0.0 81 17 40
101 20 0 0.0 81 16 42
102 20 0 0.0 78 18 39
103 20 0 0.0 76 17 41
104 20 0 0.0 76 14 43
105 21 0 0.0 83 77 61
106 21 0 0.0 85 77 62
107 21 0 0.0 88 74 59
108 21 0 0.0 90 71 56
109 21 0 0.0 93 69 58
110 22 0 0.0 99 52 3
111 22 0 0.0 97 52 0
112 22 0 0.0 96 51 0
113 22 0 0.0 95 49 98
114 22 0 0.0 97 51 97
115 23 0 0.0 87 90 25
116 23 0 0.0 89 92 22
117 23 0 0.0 92 95 25
118 23 0 0.0 89 97 27
119 23 0 0.0 87 99 25
120 24 0 0.0 33 30 21
121 24 0 0.0 35 30 23
122 24 0 0.0 34 32 26
123 24 0 0.0 35 34 25
124 24 0 0.0 38 36 27
125 25 0 0.0 95 89 17
126 25 0 0.0 93 88 15
127 25 0 0.0 92 85 13
128 25 0 0.0 94 83 12
129 25 0 0.0 96 80 9
130 26 0 0.0 22 92 12
131 26 0 0.0 19 89 9
132 26 0 0.0 16 92 10
133 26 0 0.0 14 93 10
134 26 0 0.0 17 93 11
135 27 0 0.0 27 94 55
136 27 0 0.0 24 95 56
137 27 0 0.0 25 95 53
138 27 0 0.0 28 94 54
139 27 0 0.0 26 92 51
140 28 0 0.0 5 33 86
141 28 0 0.0 7 35 87
142 28 0 0.0 4 33 87
143 28 0 0.0 6 35 89
144 28 0 0.0 8 34 86
145 29 0 0.0 59 97 83
146 29 0 0.0 57 99 83
147 29 0 0.0 54 97 81
148 29 0 0.0 56 96 82
149 29 0 0.0 55 93 84
150 30 0 0.0 55 67 93
151 30 0 0.0 57 70 96
152 30 0 0.0 57 71 95
153 30 0 0.0 60 69 94
154 30 0 0.0 57 72 94
155 31 0 0.0 33 83 67
156 31 0 0.0 34 81 64
157 31 0 0.0 36 78 63
158 31 0 0.0 34 76 62
159 31 0 0.0 31 77 63
160 32 0 0.0 33 75 56
161 32 0 0.0 32 78 55
162 32 0 0.0 35 81 56
163 32 0 0.0 38 80 57
164 32 0 0.0 37 77 56
165 33 0 0.0 3 40 9
166 33 0 0.0 3 40 6
167 33 0 0.0 0 38 3
168 33 0 0.0 2 39 6
169 33 0 0.0 1 36 4
170 34 0 0.0 27 48 53
171 34 0 0.0 24 45 56
172 34 0 0.0 21 46 58
173 34 0 0.0 22 46 59
174 34 0 0.0 20 48 58
175 35 0 0.0 15 91 72
176 35 0 0.0 15 89 69
177 35 0 0.0 18 87 72
178 35 0 0.0 17 86 74
179 35 0 0.0 20 86 73
180 36 0 0.0 35 67 18
181 36 0 0.0 32 70 18
182 36 0 0.0 33 73 21
183 36 0 0.0 30 74 22
184 36 0 0.0 31 73 19
185 37 0 0.0 45 23 23
186 37 0 0.0 43 26 25
187 37 0 0.0 46 27 26
188 37 0 0.0 49 28 26
189 37 0 0.0 51 26 28
190 38 0 0.0 14 24 4
191 38 0 0.0 14 21 1
192 38 0 0.0 13 19 99
193 38 0 0.0 14 18 1
194 38 0 0.0 14 15 4
195 39 0 0.0 27 79 72
196 39 0 0.0 27 80 72
197 39 0 0.0 27 77 71
198 39 0 0.0 25 78 72
199 39 0 0.0 27 81 71
200 40 0 0.0 18 44 73
201 40 0 0.0 18 43 74
202 40 0 0.0 15 41 75
203 40 0 0.0 17 40 78
204 40 0 0.0 18 39 79
205 41 0 0.0 29 9 45
206 41 0 0.0 30 11 45
207 41 0 0.0 33 12 46
208 41 0 0.0 36 11 43
209 41 0 0.0 35 10 44
210 42 0 0.0 33 25 20
211 42 0 0.0 30 25 20
212 42 0 0.0 29 23 19
213 42 0 0.0 26 23 17
214 42 0 0.0 26 22 20
215 43 0 0.0 73 22 58
216 43 0 0.0 74 22 56
217 43 0 0.0 77 20 53
218 43 0 0.0 74 20 52
219 43 0 0.0 77 21 52
220 44 0 0.0 71 36 49
221 44 0 0.0 71 37 47
222 44 0 0.0 71 35 45
223 44 0 0.0 68 33 45
224 44 0 0.0 68 30 43
225 45 0 0.0 19 2 29
226 45 0 0.0 18 4 26
227 45 0 0.0 15 5 25
228 45 0 0.0 14 8 28
229 45 0 0.0 13 11 30
230 46 0 0.0 33 22 49
231 46 0 0.0 31 24 51
232 46 0 0.0 34 22 53
233 46 0 0.0 34 25 53
234 46 0 0.0 34 23 51
235 47 0 0.0 21 73 56
236 47 0 0.0 19 73 59
237 47 0 0.0 17 75 58
238 47 0 0.0 14 76 61
239 47 0 0.0 17 73 62
240 48 0 0.0 82 2 6
241 48 0 0.0 79 1 9
242 48 0 0.0 81 98 10
243 48 0 0.0 80 1 13
244 48 0 0.0 80 1 12
245 49 0 0.0 58 73 32
246 49 0 0.0 57 73 33
247 49 0 0.0 55 73 34
248 49 0 0.0 53 72 31
249 49 0 0.0 52 69 34
250 50 0 0.0 55 48 57
251 50 0 0.0 56 50 55
252 50 0 0.0 57 51 58
253 50 0 0.0 54 48 56
254 50 0 0.0 56 50 53
255 51 0 0.0 43 95 25
256 51 0 0.0 45 96 24
257 51 0 0.0 48 93 23
258 51 0 0.0 47 93 24
259 51 0 0.0 50 91 24
260 52 0 0.0 93 6 51
261 52 0 0.0 91 4 49
262 52 0 0.0 94 6 49
263 52 0 0.0 92 6 46
264 52 0 0.0 91 7 43
265 53 0 0.0 22 31 45
266 53 0 0.0 20 32 45
267 53 0 0.0 17 32 44
268 53 0 0.0 15 34 44
269 53 0 0.0 13 34 43
270 54 0 0.0 56 22 57
271 54 0 0.0 53 22 58
272 54 0 0.0 52 25 56
273 54 0 0.0 51 22 59
274 54 0 0.0 53 23 56
275 55 0 0.0 18 79 28
276 55 0 0.0 20 77 31
277 55 0 0.0 22 74 33
278 55 0 0.0 24 74 35
279 55 0 0.0 21 73 33
280 56 0 0.0 13 39 48
281 56 0 0.0 15 36 51
282 56 0 0.0 16 33 52
283 56 0 0.0 16 31 49
284 56 0 0.0 17 33 48
285 57 0 0.0 51 72 90
286 57 0 0.0 51 71 88
287 57 0 0.0 49 73 87
288 57 0 0.0 50 70 89
289 57 0 0.0 53 70 89
290 58 0 0.0 2 47 84
291 58 0 0.0 3 50 83
292 58 0 0.0 2 51 80
293 58 0 0.0 1 52 83
294 58 0 0.0 3 52 82
295 59 0 0.0 48 19 62
296 59 0 0.0 51 19 60
297 59 0 0.0 52 18 63
298 59 0 0.0 50 17 61
299 59 0 0.0 52 15 63
300 60 0 0.0 55 64 4
301 60 0 0.0 53 63 7
302 60 0 0.0 55 61 6
303 60 0 0.0 58 62 8
304 60 0 0.0 59 64 9
305 61 0 0.0 65 20 36
306 61 0 0.0 63 20 36
307 61 0 0.0 63 23 33
308 61 0 0.0 63 25 35
309 61 0 0.0 63 28 37
310 62 0 0.0 11 36 28
311 62 0 0.0 8 35 27
312 62 0 0.0 7 38 25
313 62 0 0.0 10 35 25
314 62 0 0.0 13 34 24
315 63 0 0.0 36 48 54
316 63 0 0.0 38 48 51
317 63 0 0.0 37 45 49
318 63 0 0.0 39 44 47
319 63 0 0.0 38 47 46
320 64 0 0.0 95 70 75
321 64 0 0.0 94 72 75
322 64 0 0.0 93 71 77
323 64 0 0.0 90 68 75
324 64 0 0.0 93 66 77
325 65 0 0.0 49 58 91
326 65 0 0.0 52 61 94
327 65 0 0.0 51 60 97
328 65 0 0.0 50 61 96
329 65 0 0.0 52 61 96
330 66 0 0.0 75 0 25
331 66 0 0.0 76 0 26
332 66 0 0.0 76 1 28
333 66 0 0.0 79 99 31
334 66 0 0.0 79 98 30
335 67 0 0.0 13 32 49
336 67 0 0.0 11 32 46
337 67 0 0.0 13 33 47
338 67 0 0.0 12 32 45
339 67 0 0.0 11 34 44
340 68 0 0.0 72 16 43
341 68 0 0.0 75 16 42
342 68 0 0.0 78 16 43
343 68 0 0.0 77 18 42
344 68 0 0.0 76 19 44
345 69 0 0.0 3 23 64
346 69 0 0.0 6 24 63
347 69 0 0.0 4 21 62
348 69 0 0.0 2 23 61
349 69 0 0.0 3 25 64
350 70 0 0.0 61 58 10
351 70 0 0.0 62 57 13
352 70 0 0.0 62 55 10
353 70 0 0.0 64 57 9
354 70 0 0.0 67 60 8
355 71 0 0.0 14 45 6
356 71 0 0.0 11 48 8
357 71 0 0.0 9 47 11
358 71 0 0.0 7 48 9
359 71 0 0.0 9 49 10
360 72 0 0.0 97 61 4
361 72 0 0.0 98 63 1
362 72 0 0.0 99 62 2
363 72 0 0.0 0 64 0
364 72 0 0.0 97 62 1
365 73 0 0.0 55 45 88
366 73 0 0.0 57 48 88
367 73 0 0.0 58 45 90
368 73 0 0.0 56 48 92
369 73 0 0.0 55 46 95
370 74 0 0.0 57 4 0
371 74 0 0.0 57 4 97
372 74 0 0.0 56 2 96
373 74 0 0.0 56 99 99
374 74 0 0.0 55 98 1
375 75 0 0.0 6 47 64
376 75 0 0.0 8 47 61
377 75 0 0.0 8 46 58
378 75 0 0.0 8 45 59
379 75 0 0.0 6 46 59
380 76 0 0.0 91 84 40
381 76 0 0.0 90 82 42
382 76 0 0.0 88 80 43
383 76 0 0.0 86 78 41
384 76 0 0.0 84 75 44
385 77 0 0.0 90 46 36
386 77 0 0.0 89 45 35
387 77 0 0.0 90 46 32
388 77 0 0.0 91 43 31
389 77 0 0.0 90 40 32
390 78 0 0.0 99 86 77
391 78 0 0.0 96 86 80
392 78 0 0.0 97 83 77
393 78 0 0.0 99 81 75
394 78 0 0.0 96 84 78
395 79 0 0.0 85 51 21
396 79 0 0.0 87 54 24
397 79 0 0.0 85 57 25
398 79 0 0.0 83 54 27
399 79 0 0.0 82 54 27
400 80 0 0.0 84 82 66
401 80 0 0.0 81 84 64
402 80 0 0.0 79 81 61
403 80 0 0.0 82 84 59
404 80 0 0.0 80 83 56
405 81 0 0.0 24 31 91
406 81 0 0.0 25 34 89
407 81 0 0.0 27 33 91
408 81 0 0.0 30 32 88
409 81 0 0.0 27 29 91
410 82 0 0.0 31 57 80
411 82 0 0.0 31 56 82
412 82 0 0.0 28 59 83
413 82 0 0.0 31 61 82
414 82 0 0.0 34 58 80
415 83 0 0.0 91 55 0
416 83 0 0.0 93 53 98
417 83 0 0.0 96 50 1
418 83 0 0.0 95 47 0
419 83 0 0.0 95 44 97
420 84 0 0.0 82 88 43
421 84 0 0.0 79 87 46
422 84 0 0.0 79 84 49
423 84 0 0.0 77 84 49
424 84 0 0.0 80 85 50
425 85 0 0.0 11 26 28
426 85 0 0.0 13 23 28
427 85 0 0.0 11 22 26
428 85 0 0.0 14 25 24
429 85 0 0.0 11 25 27
430 86 0 0.0 64 7 95
431 86 0 0.0 61 9 92
432 86 0 0.0 61 12 91
433 86 0 0.0 62 13 89
434 86 0 0.0 63 14 91
435 87 0 0.0 87 4 63
436 87 0 0.0 85 3 62
437 87 0 0.0 82 2 62
438 87 0 0.0 82 4 61
439 87 0 0.0 83 7 61
440 88 0 0.0 11 87 7
441 88 0 0.0 14 90 8
442 88 0 0.0 13 87 10
443 88 0 0.0 13 89 7
444 88 0 0.0 15 91 9
445 89 0 0.0 83 63 59
446 89 0 0.0 80 63 56
447 89 0 0.0 78 60 56
448 89 0 0.0 79 62 59
449 89 0 0.0 82 65 60
450 90 0 0.0 45 68 77
451 90 0 0.0 44 69 78
452 90 0 0.0 47 70 78
453 90 0 0.0 48 71 80
454 90 0 0.0 46 70 80
455 91 0 0.0 30 74 67
456 91 0 0.0 33 73 67
457 91 0 0.0 36 76 70
458 91 0 0.0 36 75 72
459 91 0 0.0 33 73 72
460 92 0 0.0 11 29 15
461 92 0 0.0 10 32 18
462 92 0 0.0 13 31 17
463 92 0 0.0 15 28 17
464 92 0 0.0 12 31 16
465 93 0 0.0 20 44 85
466 93 0 0.0 22 47 82
467 93 0 0.0 21 48 79
468 93 0 0.0 23 45 81
469 93 0 0.0 25 45 80
470 94 0 0.0 93 16 72
471 94 0 0.0 93 13 70
472 94 0 0.0 93 12 70
473 94 0 0.0 96 11 71
474 94 0 0.0 96 9 74
475 95 0 0.0 69 67 70
476 95 0 0.0 66 66 68
477 95 0 0.0 64 64 69
478 95 0 0.0 63 66 72
479 95 0 0.0 62 64 73
480 96 0 0.0 38 37 84
481 96 0 0.0 39 40 87
482 96 0 0.0 42 39 89
483 96 0 0.0 42 41 86
484 96 0 0.0 45 40 87
485 97 0 0.0 28 42 98
486 97 0 0.0 26 45 99
487 97 0 0.0 28 46 97
488 97 0 0.0 29 48 96
489 97 0 0.0 30 49 99
490 98 0 0.0 49 14 12
491 98 0 0.0 49 13 14
492 98 0 0.0 47 13 15
493 98 0 0.0 44 15 16
494 98 0 0.0 42 16 17
495 99 0 0.0 70 21 14
496 99 0 0.0 71 21 14
497 99 0 0.0 73 23 16
498 99 0 0.0 73 20 17
499 99 0 0.0 71 17 17
500 100 0 0.0 22 68 96
501 100 0 0.0 25 71 98
502 100 0 0.0 25 73 99
503 100 0 0.0 27 74 99
504 100 0 0.0 27 77 99
505 101 0 0.0 7 75 2
506 101 0 0.0 7 77 3
507 101 0 0.0 10 78 3
508 101 0 0.0 10 81 3
509 101 0 0.0 11 82 1
510 102 0 0.0 16 76 38
511 102 0 0.0 17 78 39
512 102 0 0.0 19 81 41
513 102 0 0.0 21 78 40
514 102 0 0.0 18 80 43
515 103 0 0.0 93 27 70
516 103 0 0.0 95 29 72
517 103 0 0.0 96 29 69
518 103 0 0.0 95 31 71
519 103 0 0.0 96 28 74
520 104 0 0.0 92 97 50
521 104 0 0.0 92 99 49
522 104 0 0.0 90 99 49
523 104 0 0.0 90 0 46
524 104 0 0.0 93 3 44
525 105 0 0.0 80 53 75
526 105 0 0.0 80 56 72
527 105 0 0.0 81 57 71
528 105 0 0.0 84 56 72
529 105 0 0.0 83 56 73
530 106 0 0.0 28 77 59
531 106 0 0.0 28 79 56
532 106 0 0.0 30 79 57
533 106 0 0.0 30 79 60
534 106 0 0.0 30 77 60
535 107 0 0.0 47 44 87
536 107 0 0.0 44 41 86
537 107 0 0.0 45 41 88
538 107 0 0.0 42 40 87
539 107 0 0.0 39 37 87
540 108 0 0.0 77 45 3
541 108 0 0.0 76 48 3
542 108 0 0.0 74 51 2
543 108 0 0.0 76 49 4
544 108 0 0.0 73 49 4
545 109 0 0.0 57 76 36
546 109 0 0.0 60 79 37
547 109 0 0.0 59 79 39
548 109 0 0.0 59 77 42
549 109 0 0.0 61 75 42
550 110 0 0.0 32 73 31
551 110 0 0.0 33 74 34
552 110 0 0.0 34 74 34
553 110 0 0.0 36 72 36
554 110 0 0.0 36 75 36
555 111 0 0.0 34 72 56
556 111 0 0.0 31 71 57
557 111 0 0.0 31 69 58
558 111 0 0.0 33 72 61
559 111 0 0.0 33 70 62
560 112 0 0.0 35 82 44
561 112 0 0.0 36 81 42
562 112 0 0.0 35 84 40
563 112 0 0.0 37 86 38
564 112 0 0.0 37 88 39
565 113 0 0.0 31 33 97
566 113 0 0.0 33 34 96
567 113 0 0.0 33 34 94
568 113 0 0.0 32 31 91
569 113 0 0.0 29 28 94
570 114 0 0.0 97 2 67
571 114 0 0.0 99 99 64
572 114 0 0.0 1 98 64
573 114 0 0.0 1 0 66
574 114 0 0.0 0 97 65
575 115 0 0.0 26 71 93
576 115 0 0.0 28 73 94
577 115 0 0.0 30 74 96
578 115 0 0.0 31 76 98
579 115 0 0.0 29 77 95
580 116 0 0.0 29 22 91
581 116 0 0.0 28 25 93
582 116 0 0.0 28 27 90
583 116 0 0.0 25 25 93
584 116 0 0.0 24 27 94
585 117 0 0.0 95 66 14
586 117 0 0.0 92 66 12
587 117 0 0.0 89 66 12
588 117 0 0.0 92 66 11
589 117 0 0.0 92 64 9
590 118 0 0.0 48 1 65
591 118 0 0.0 49 3 68
592 118 0 0.0 52 0 71
593 118 0 0.0 54 97 69
594 118 0 0.0 52 94 70
595 119 0 0.0 9 16 67
596 119 0 0.0 8 17 64
597 119 0 0.0 10 14 64
598 119 0 0.0 13 16 62
599 119 0 0.0 11 15 64
600 120 0 0.0 2 81 20
601 120 0 0.0 5 82 20
602 120 0 0.0 3 80 23
603 120 0 0.0 4 83 25
604 120 0 0.0 7 81 27
605 121 0 0.0 59 19 80
606 121 0 0.0 61 22 78
607 121 0 0.0 58 22 80
608 121 0 0.0 56 19 81
609 121 0 0.0 53 17 83
610 122 0 0.0 36 70 35
611 122 0 0.0 37 72 35
612 122 0 0.0 36 73 33
613 122 0 0.0 36 75 34
614 122 0 0.0 33 77 33
615 123 0 0.0 45 47 36
616 123 0 0.0 47 50 33
617 123 0 0.0 46 53 34
618 123 0 0.0 43 56 34
619 123 0 0.0 42 53 31
620 124 0 0.0 57 72 82
621 124 0 0.0 55 69 81
622 124 0 0.0 52 67 80
623 124 0 0.0 51 64 77
624 124 0 0.0 51 61 74
625 125 0 0.0 65 96 18
626 125 0 0.0 68 96 19
627 125 0 0.0 66 97 18
628 125 0 0.0 64 97 20
629 125 0 0.0 67 98 20
630 126 0 0.0 39 71 42
631 126 0 0.0 42 72 42
632 126 0 0.0 43 71 39
633 126 0 0.0 42 69 40
634 126 0 0.0 39 66 38
635 127 0 0.0 70 69 73
636 127 0 0.0 68 68 72
637 127 0 0.0 65 67 75
638 127 0 0.0 63 66 73
639 127 0 0.0 64 64 75
640 128 0 0.0 81 17 95
641 128 0 0.0 84 19 96
642 128 0 0.0 81 22 93
643 128 0 0.0 79 19 90
644 128 0 0.0 79 20 87
645 129 0 0.0 96 24 33
646 129 0 0.0 93 27 30
647 129 0 0.0 92 29 28
648 129 0 0.0 92 29 25
649 129 0 0.0 91 27 27
650 130 0 0.0 84 76 6
651 130 0 0.0 81 78 8
652 130 0 0.0 79 75 5
653 130 0 0.0 76 77 2
654 130 0 0.0 74 74 4
655 131 0 0.0 55 35 6
656 131 0 0.0 52 32 6
657 131 0 0.0 52 31 5
658 131 0 0.0 51 31 8
659 131 0 0.0 50 28 6
660 132 0 0.0 98 40 41
661 132 0 0.0 1 39 42
662 132 0 0.0 4 42 40
663 132 0 0.0 7 41 43
664 132 0 0.0 6 38 45
665 133 0 0.0 37 9 1
666 133 0 0.0 36 11 1
667 133 0 0.0 38 14 1
668 133 0 0.0 35 12 2
669 133 0 0.0 32 9 5
670 134 0 0.0 9 86 61
671 134 0 0.0 12 87 59
672 134 0 0.0 15 85 56
673 134 0 0.0 18 82 59
674 134 0 0.0 19 80 60
675 135 0 0.0 73 38 62
676 135 0 0.0 73 37 59
677 135 0 0.0 72 37 58
678 135 0 0.0 69 34 59
679 135 0 0.0 70 35 60
680 136 0 0.0 92 35 85
681 136 0 0.0 93 36 87
682 136 0 0.0 93 33 87
683 136 0 0.0 92 34 86
684 136 0 0.0 89 33 83
685 137 0 0.0 22 12 17
686 137 0 0.0 25 9 20
687 137 0 0.0 22 12 21
688 137 0 0.0 22 9 23
689 137 0 0.0 22 8 26
690 138 0 0.0 87 50 44
691 138 0 0.0 84 49 45
692 138 0 0.0 81 46 44
693 138 0 0.0 78 46 46
694 138 0 0.0 79 49 44
695 139 0 0.0 40 75 60
696 139 0 0.0 39 76 62
697 139 0 0.0 38 75 60
698 139 0 0.0 41 74 62
699 139 0 0.0 40 76 65
700 140 0 0.0 72 21 71
701 140 0 0.0 70 24 74
702 140 0 0.0 73 27 77
703 140 0 0.0 75 27 79
704 140 0 0.0 76 29 80
705 141 0 0.0 97 48 76
706 141 0 0.0 0 51 79
707 141 0 0.0 99 50 76
708 141 0 0.0 2 52 79
709 141 0 0.0 0 51 76
710 142 0 0.0 99 0 89
711 142 0 0.0 1 0 86
712 142 0 0.0 98 0 85
713 142 0 0.0 98 97 83
714 142 0 0.0 98 98 84
715 143 0 0.0 53 42 67
716 143 0 0.0 54 44 68
717 143 0 0.0 54 46 65
718 143 0 0.0 55 47 62
719 143 0 0.0 58 45 61
720 144 0 0.0 95 30 1
721 144 0 0.0 96 31 0
722 144 0 0.0 99 33 98
723 144 0 0.0 98 32 1
724 144 0 0.0 1 30 99
725 145 0 0.0 77 53 24
726 145 0 0.0 75 52 26
727 145 0 0.0 74 51 25
728 145 0 0.0 74 48 27
729 145 0 0.0 75 49 26
730 146 0 0.0 84 19 53
731 146 0 0.0 86 18 50
732 146 0 0.0 85 20 47
733 146 0 0.0 84 22 45
734 146 0 0.0 86 23 47
735 147 0 0.0 25 38 24
736 147 0 0.0 25 37 26
737 147 0 0.0 27 38 24
738 147 0 0.0 26 38 23
739 147 0 0.0 26 39 23
740 148 0 0.0 69 84 24
741 148 0 0.0 72 82 27
742 148 0 0.0 72 85 28
743 148 0 0.0 72 82 28
744 148 0 0.0 70 79 28
745 149 0 0.0 63 22 91
746 149 0 0.0 63 19 93
747 149 0 0.0 61 19 93
748 149 0 0.0 64 21 92
749 149 0 0.0 61 18 90
750 150 0 0.0 67 28 21
751 150 0 0.0 65 26 19
752 150 0 0.0 67 27 16
753 150 0 0.0 68 27 16
754 150 0 0.0 67 28 13
755 151 0 0.0 71 5 66
756 151 0 0.0 73 2 67
757 151 0 0.0 74 5 64
758 151 0 0.0 74 8 65
759 151 0 0.0 76 5 68
760 152 0 0.0 86 33 22
761 152 0 0.0 89 35 20
762 152 0 0.0 89 34 21
763 152 0 0.0 87 31 24
764 152 0 0.0 85 34 23
765 153 0 0.0 66 25 96
766 153 0 0.0 69 25 96
767 153 0 0.0 71 25 93
768 153 0 0.0 71 24 90
769 153 0 0.0 70 26 92
770 154 0 0.0 6 71 21
771 154 0 0.0 7 69 24
772 154 0 0.0 7 72 27
773 154 0 0.0 7 72 30
774 154 0 0.0 7 73 30
775 155 0 0.0 19 3 90
776 155 0 0.0 18 1 92
777 155 0 0.0 20 99 92
778 155 0 0.0 19 99 91
779 155 0 0.0 22 0 92
780 156 0 0.0 80 61 69
781 156 0 0.0 77 62 67
782 156 0 0.0 77 64 69
783 156 0 0.0 75 63 66
784 156 0 0.0 78 66 65
785 157 0 0.0 4 39 29
786 157 0 0.0 5 40 30
787 157 0 0.0 6 37 30
788 157 0 0.0 3 37 31
789 157 0 0.0 6 36 32
790 158 0 0.0 92 87 9
791 158 0 0.0 95 86 6
792 158 0 0.0 93 88 7
793 158 0 0.0 95 86 4
794 158 0 0.0 93 89 5
795 159 0 0.0 94 77 66
796 159 0 0.0 95 80 67
797 159 0 0.0 92 80 68
798 159 0 0.0 94 82 65
799 159 0 0.0 92 79 62
800 160 0 0.0 29 65 33
801 160 0 0.0 26 63 35
802 160 0 0.0 26 60 37
803 160 0 0.0 28 58 40
804 160 0 0.0 29 58 42
805 161 0 0.0 17 76 22
806 161 0 0.0 16 77 21
807 161 0 0.0 14 79 20
808 161 0 0.0 15 79 23
809 161 0 0.0 18 81 21
810 162 0 0.0 54 90 97
811 162 0 0.0 51 90 94
812 162 0 0.0 49 87 93
813 162 0 0.0 46 86 91
814 162 0 0.0 46 87 90
815 163 0 0.0 42 91 89
816 163 0 0.0 40 92 87
817 163 0 0.0 37 93 84
818 163 0 0.0 36 96 81
819 163 0 0.0 37 94 81
820 164 0 0.0 57 13 70
821 164 0 0.0 58 13 70
822 164 0 0.0 60 11 71
823 164 0 0.0 58 10 73
824 164 0 0.0 57 13 75
825 165 0 0.0 55 67 33
826 165 0 0.0 52 65 36
827 165 0 0.0 52 62 34
828 165 0 0.0 50 60 32
829 165 0 0.0 52 59 35
830 166 0 0.0 68 37 23
831 166 0 0.0 69 36 26
832 166 0 0.0 66 33 28
833 166 0 0.0 68 30 28
834 166 0 0.0 65 29 25
835 167 0 0.0 85 83 88
836 167 0 0.0 84 80 85
837 167 0 0.0 86 82 87
838 167 0 0.0 89 84 88
839 167 0 0.0 88 83 87
840 168 0 0.0 87 5 23
841 168 0 0.0 84 8 22
842 168 0 0.0 85 5 22
843 168 0 0.0 87 2 25
844 168 0 0.0 86 5 27
845 169 0 0.0 97 96 55
846 169 0 0.0 94 94 54
847 169 0 0.0 93 94 51
848 169 0 0.0 94 95 48
849 169 0 0.0 95 96 45
850 170 0 0.0 44 26 61
851 170 0 0.0 47 25 63
852 170 0 0.0 44 27 64
853 170 0 0.0 43 30 61
854 170 0 0.0 40 32 63
855 171 0 0.0 66 66 0
856 171 0 0.0 67 66 98
857 171 0 0.0 69 64 1
858 171 0 0.0 71 62 1
859 171 0 0.0 70 63 4
860 172 0 0.0 88 54 8
861 172 0 0.0 91 52 8
862 172 0 0.0 90 50 8
863 172 0 0.0 91 52 6
864 172 0 0.0 91 53 4
865 173 0 0.0 11 10 70
866 173 0 0.0 13 13 71
867 173 0 0.0 14 12 74
868 173 0 0.0 16 14 75
869 173 0 0.0 17 13 75
870 174 0 0.0 92 76 13
871 174 0 0.0 92 77 11
872 174 0 0.0 89 74 11
873 174 0 0.0 89 74 12
874 174 0 0.0 88 73 14
875 175 0 0.0 3 40 63
876 175 0 0.0 1 40 61
877 175 0 0.0 99 38 63
878 175 0 0.0 99 41 65
879 175 0 0.0 96 42 65
880 176 0 0.0 18 61 63
881 176 0 0.0 17 58 62
882 176 0 0.0 18 59 64
883 176 0 0.0 16 61 61
884 176 0 0.0 15 59 59
885 177 0 0.0 13 30 22
886 177 0 0.0 12 31 23
887 177 0 0.0 9 33 20
888 177 0 0.0 12 34 21
889 177 0 0.0 15 32 20
890 178 0 0.0 3 45 54
891 178 0 0.0 0 43 53
892 178 0 0.0 0 42 56
893 178 0 0.0 98 40 55
894 178 0 0.0 97 42 56
895 179 0 0.0 55 65 75
896 179 0 0.0 52 63 78
897 179 0 0.0 51 64 78
898 179 0 0.0 54 63 78
899 179 0 0.0 54 62 79
900 180 0 0.0 15 57 81
901 180 0 0.0 16 59 83
902 180 0 0.0 15 60 81
903 180 0 0.0 13 60 78
904 180 0 0.0 11 58 80
905 181 0 0.0 80 86 69
906 181 0 0.0 79 83 72
907 181 0 0.0 79 80 71
908 181 0 0.0 80 79 72
909 181 0 0.0 79 82 70
910 182 0 0.0 60 22 3
911 182 0 0.0 62 21 4
912 182 0 0.0 62 22 2
913 182 0 0.0 62 25 3
914 182 0 0.0 65 26 5
915 183 0 0.0 20 2 79
916 183 0 0.0 18 4 81
917 183 0 0.0 16 6 81
918 183 0 0.0 13 6 83
919 183 0 0.0 13 7 85
920 184 0 0.0 49 5 45
921 184 0 0.0 48 8 42
922 184 0 0.0 46 10 40
923 184 0 0.0 48 10 39
924 184 0 0.0 50 11 40
925 185 0 0.0 26 67 51
926 185 0 0.0 29 65 53
927 185 0 0.0 30 64 52
928 185 0 0.0 29 65 55
929 185 0 0.0 28 65 58
930 186 0 0.0 53 49 1
931 186 0 0.0 51 50 98
932 186 0 0.0 52 51 1
933 186 0 0.0 49 48 4
934 186 0 0.0 46 47 7
935 187 0 0.0 34 23 9
936 187 0 0.0 37 22 10
937 187 0 0.0 40 19 12
938 187 0 0.0 39 17 13
939 187 0 0.0 38 16 11
940 188 0 0.0 20 41 50
941 188 0 0.0 19 39 51
942 188 0 0.0 22 37 54
943 188 0 0.0 24 35 52
944 188 0 0.0 22 36 50
945 189 0 0.0 76 7 63
946 189 0 0.0 79 6 61
947 189 0 0.0 79 9 59
948 189 0 0.0 78 10 58
949 189 0 0.0 78 10 60
950 190 0 0.0 9 12 65
951 190 0 0.0 12 14 64
952 190 0 0.0 13 12 63
953 190 0 0.0 16 9 65
954 190 0 0.0 17 12 66
955 191 0 0.0 58 19 41
956 191 0 0.0 57 22 41
957 191 0 0.0 59 24 43
958 191 0 0.0 61 21 42
959 191 0 0.0 63 21 44
960 192 0 0.0 56 65 44
961 192 0 0.0 55 65 42
962 192 0 0.0 56 62 40
963 192 0 0.0 58 63 41
964 192 0 0.0 58 65 39
965 193 0 0.0 80 19 19
966 193 0 0.0 80 18 19
967 193 0 0.0 79 19 19
968 193 0 0.0 80 16 18
969 193 0 0.0 79 17 20
970 194 0 0.0 40 50 61
971 194 0 0.0 41 47 58
972 194 0 0.0 40 45 57
973 194 0 0.0 40 43 60
974 194 0 0.0 41 41 61
975 195 0 0.0 56 3 75
976 195 0 0.0 54 4 74
977 195 0 0.0 52 2 71
978 195 0 0.0 53 0 72
979 195 0 0.0 51 99 70
980 196 0 0.0 40 20 15
981 196 0 0.0 43 22 13
982 196 0 0.0 42 19 10
983 196 0 0.0 41 20 12
984 196 0 0.0 44 19 14
985 197 0 0.0 62 67 23
986 197 0 0.0 59 64 26
987 197 0 0.0 57 65 28
988 197 0 0.0 58 64 26
989 197 0 0.0 55 66 25
990 198 0 0.0 11 60 22
991 198 0 0.0 9 61 23
992 198 0 0.0 6 58 22
993 198 0 0.0 6 58 25
994 198 0 0.0 4 56 28
995 199 0 0.0 76 35 17
996 199 0 0.0 75 33 15
997 199 0 0.0 76 31 14
998 199 0 0.0 79 32 12
999 199 0 0.0 80 31 12
1000 200 0 0.0 84 30 66
1001 200 0 0.0 82 33 68
1002 200 0 0.0 84 33 67
1003 200 0 0.0 86 34 64
1004 200 0 0.0 86 34 61
1005 201 0 0.0 89 48 69
1006 201 0 0.0 90 50 66
1007 201 0 0.0 89 49 66
1008 201 0 0.0 90 49 69
1009 201 0 0.0 92 51 70
1010 202 0 0.0 77 64 31
1011 202 0 0.0 80 61 31
1012 202 0 0.0 82 59 34
1013 202 0 0.0 79 61 34
1014 202 0 0.0 80 64 37
1015 203 0 0.0 68 53 92
1016 203 0 0.0 67 50 95
1017 203 0 0.0 70 50 98
1018 203 0 0.0 68 52 0
1019 203 0 0.0 67 50 3
1020 204 0 0.0 67 55 19
1021 204 0 0.0 70 58 20
1022 204 0 0.0 70 57 22
1023 204 0 0.0 68 59 25
1024 204 0 0.0 70 58 24
1025 205 0 0.0 43 67 2
1026 205 0 0.0 44 64 3
1027 205 0 0.0 46 61 5
1028 205 0 0.0 44 64 5
1029 205 0 0.0 42 61 7
1030 206 0 0.0 98 91 84
1031 206 0 0.0 0 91 84
1032 206 0 0.0 97 93 85
1033 206 0 0.0 95 92 86
1034 206 0 0.0 98 89 89
1035 207 0 0.0 94 56 49
1036 207 0 0.0 94 57 48
1037 207 0 0.0 92 58 51
1038 207 0 0.0 95 57 53
1039 207 0 0.0 95 60 55
1040 208 0 0.0 48 39 72
1041 208 0 0.0 47 38 72
1042 208 0 0.0 44 41 72
1043 208 0 0.0 45 43 69
1044 208 0 0.0 42 40 71
1045 209 0 0.0 91 53 93
1046 209 0 0.0 92 50 95
1047 209 0 0.0 90 53 95
1048 209 0 0.0 93 50 93
1049 209 0 0.0 93 51 92
1050 210 0 0.0 37 41 11
1051 210 0 0.0 35 42 14
1052 210 0 0.0 33 41 13
1053 210 0 0.0 32 41 15
1054 210 0 0.0 33 41 18
1055 211 0 0.0 22 24 33
1056 211 0 0.0 23 26 31
1057 211 0 0.0 24 27 28
1058 211 0 0.0 22 26 26
1059 211 0 0.0 19 23 27
1060 212 0 0.0 95 85 65
1061 212 0 0.0 97 85 62
1062 212 0 0.0 97 84 59
1063 212 0 0.0 0 83 61
1064 212 0 0.0 3 83 63
1065 213 0 0.0 99 17 43
1066 213 0 0.0 99 18 41
1067 213 0 0.0 2 20 40
1068 213 0 0.0 1 22 39
1069 213 0 0.0 2 25 40
1070 214 0 0.0 40 61 42
1071 214 0 0.0 42 60 43
1072 214 0 0.0 41 62 43
1073 214 0 0.0 41 61 45
1074 214 0 0.0 42 61 47
1075 215 0 0.0 2 26 40
1076 215 0 0.0 0 29 42
1077 215 0 0.0 99 26 40
1078 215 0 0.0 99 25 39
1079 215 0 0.0 98 22 38
1080 216 0 0.0 15 99 11
1081 216 0 0.0 18 0 12
1082 216 0 0.0 18 98 15
1083 216 0 0.0 16 98 17
1084 216 0 0.0 15 99 15
1085 217 0 0.0 21 14 55
1086 217 0 0.0 24 17 54
1087 217 0 0.0 24 16 55
1088 217 0 0.0 23 17 55
1089 217 0 0.0 24 18 53
1090 218 0 0.0 40 48 33
1091 218 0 0.0 41 46 34
1092 218 0 0.0 38 46 34
1093 218 0 0.0 37 44 33
1094 218 0 0.0 34 47 32
1095 219 0 0.0 73 99 3
1096 219 0 0.0 76 96 1
1097 219 0 0.0 74 95 4
1098 219 0 0.0 71 98 1
1099 219 0 0.0 74 95 1
1100 220 0 0.0 43 82 52
1101 220 0 0.0 46 83 52
1102 220 0 0.0 44 83 50
1103 220 0 0.0 41 81 51
1104 220 0 0.0 43 83 48
1105 221 0 0.0 51 39 56
1106 221 0 0.0 48 41 56
1107 221 0 0.0 45 40 53
1108 221 0 0.0 47 40 50
1109 221 0 0.0 46 41 47
1110 222 0 0.0 71 17 63
1111 222 0 0.0 68 17 66
1112 222 0 0.0 69 18 67
1113 222 0 0.0 72 20 65
1114 222 0 0.0 74 17 63
1115 223 0 0.0 52 92 5
1116 223 0 0.0 49 94 7
1117 223 0 0.0 48 95 6
1118 223 0 0.0 51 93 5
1119 223 0 0.0 48 95 2
1120 224 0 0.0 84 32 94
1121 224 0 0.0 87 34 93
1122 224 0 0.0 90 32 93
1123 224 0 0.0 91 31 93
1124 224 0 0.0 91 31 91
1125 225 0 0.0 52 89 68
1126 225 0 0.0 54 88 68
1127 225 0 0.0 55 89 69
1128 225 0 0.0 55 91 66
1129 225 0 0.0 55 88 66
1130 226 0 0.0 51 23 49
1131 226 0 0.0 50 23 47
1132 226 0 0.0 49 25 46
1133 226 0 0.0 46 26 45
1134 226 0 0.0 49 26 47
1135 227 0 0.0 37 16 88
1136 227 0 0.0 34 15 86
1137 227 0 0.0 33 18 85
1138 227 0 0.0 35 18 82
1139 227 0 0.0 36 15 81
1140 228 0 0.0 15 0 89
1141 228 0 0.0 17 97 89
1142 228 0 0.0 14 94 91
1143 228 0 0.0 17 96 94
1144 228 0 0.0 17 99 94
1145 229 0 0.0 31 29 41
1146 229 0 0.0 31 28 43
1147 229 0 0.0 28 28 44
1148 229 0 0.0 30 29 45
1149 229 0 0.0 29 31 48
1150 230 0 0.0 17 48 2
1151 230 0 0.0 17 47 5
1152 230 0 0.0 16 48 2
1153 230 0 0.0 14 45 3
1154 230 0 0.0 14 43 3
1155 231 0 0.0 43 26 68
1156 231 0 0.0 45 29 69
1157 231 0 0.0 47 27 70
1158 231 0 0.0 48 30 68
1159 231 0 0.0 45 31 67
1160 232 0 0.0 44 2 5
1161 232 0 0.0 47 99 3
1162 232 0 0.0 45 2 4
1163 232 0 0.0 47 4 2
1164 232 0 0.0 44 3 0
1165 233 0 0.0 5 88 12
1166 233 0 0.0 8 87 13
1167 233 0 0.0 7 88 11
1168 233 0 0.0 6 87 13
1169 233 0 0.0 7 89 11
1170 234 0 0.0 91 9 0
1171 234 0 0.0 92 12 99
1172 234 0 0.0 93 11 2
1173 234 0 0.0 95 10 99
1174 234 0 0.0 96 12 97
1175 235 0 0.0 57 88 0
1176 235 0 0.0 54 85 98
1177 235 0 0.0 54 86 98
1178 235 0 0.0 54 85 99
1179 235 0 0.0 56 86 1
1180 236 0 0.0 17 34 46
1181 236 0 0.0 17 37 45
1182 236 0 0.0 17 39 43
1183 236 0 0.0 14 38 42
1184 236 0 0.0 12 37 39
1185 237 0 0.0 98 23 59
1186 237 0 0.0 1 25 57
1187 237 0 0.0 1 25 58
1188 237 0 0.0 3 25 55
1189 237 0 0.0 2 22 53
1190 238 0 0.0 71 40 49
1191 238 0 0.0 74 39 47
1192 238 0 0.0 75 39 47
1193 238 0 0.0 78 39 49
1194 238 0 0.0 76 40 47
1195 239 0 0.0 44 73 37
1196 239 0 0.0 45 70 34
1197 239 0 0.0 43 68 35
1198 239 0 0.0 46 71 38
1199 239 0 0.0 46 70 40
1200 240 0 0.0 20 34 25
1201 240 0 0.0 17 37 24
1202 240 0 0.0 16 36 21
1203 240 0 0.0 15 33 22
1204 240 0 0.0 14 35 19
1205 241 0 0.0 95 59 93
1206 241 0 0.0 98 58 92
1207 241 0 0.0 97 60 94
1208 241 0 0.0 97 58 92
1209 241 0 0.0 96 56 90
1210 242 0 0.0 88 25 28
1211 242 0 0.0 90 26 27
1212 242 0 0.0 91 23 26
1213 242 0 0.0 92 24 24
1214 242 0 0.0 93 23 26
1215 243 0 0.0 45 5 11
1216 243 0 0.0 44 7 12
1217 243 0 0.0 42 9 12
1218 243 0 0.0 39 6 12
1219 243 0 0.0 39 7 15
1220 244 0 0.0 98 80 99
1221 244 0 0.0 1 83 97
1222 244 0 0.0 98 81 0
1223 244 0 0.0 95 84 98
1224 244 0 0.0 93 83 98
1225 245 0 0.0 57 98 43
1226 245 0 0.0 59 96 45
1227 245 0 0.0 61 98 48
1228 245 0 0.0 59 97 45
1229 245 0 0.0 57 96 42
1230 246 0 0.0 31 33 15
1231 246 0 0.0 28 31 13
1232 246 0 0.0 31 31 10
1233 246 0 0.0 32 29 7
1234 246 0 0.0 31 30 4
1235 247 0 0.0 7 87 6
1236 247 0 0.0 7 86 8
1237 247 0 0.0 4 89 6
1238 247 0 0.0 6 90 4
1239 247 0 0.0 6 87 4
1240 248 0 0.0 89 64 47
1241 248 0 0.0 90 65 49
1242 248 0 0.0 87 67 51
1243 248 0 0.0 90 65 53
1244 248 0 0.0 93 67 56
1245 249 0 0.0 12 93 84
1246 249 0 0.0 10 91 83
1247 249 0 0.0 10 94 80
1248 249 0 0.0 12 95 80
1249 249 0 0.0 15 93 77
1250 250 1 0.0 59 9 63
1251 250 1 0.0 56 6 66
1252 250 1 0.0 55 6 63
1253 250 1 0.0 54 4 66
1254 250 1 0.0 51 7 67
1255 251 1 0.0 25 7 37
1256 251 1 0.0 24 8 38
1257 251 1 0.0 24 6 39
1258 251 1 0.0 23 9 42
1259 251 1 0.0 24 9 45
1260 252 1 0.0 87 59 89
1261 252 1 0.0 89 58 86
1262 252 1 0.0 88 59 89
1263 252 1 0.0 88 59 88
1264 252 1 0.0 88 62 85
1265 253 1 0.0 95 38 69
1266 253 1 0.0 97 40 68
1267 253 1 0.0 95 37 69
1268 253 1 0.0 92 37 68
1269 253 1 0.0 90 36 65
1270 254 1 0.0 39 63 61
1271 254 1 0.0 41 61 59
1272 254 1 0.0 41 62 61
1273 254 1 0.0 44 64 64
1274 254 1 0.0 42 63 67
1275 255 1 0.0 90 74 12
1276 255 1 0.0 91 73 15
1277 255 1 0.0 89 73 16
1278 255 1 0.0 89 74 18
1279 255 1 0.0 88 75 19
1280 256 1 0.0 96 62 29
1281 256 1 0.0 97 61 32
1282 256 1 0.0 94 62 32
1283 256 1 0.0 96 64 33
1284 256 1 0.0 94 64 34
1285 257 1 0.0 38 99 73
1286 257 1 0.0 41 98 76
1287 257 1 0.0 42 99 75
1288 257 1 0.0 45 97 77
1289 257 1 0.0 46 95 80
1290 258 1 0.0 2 55 90
1291 258 1 0.0 0 55 87
1292 258 1 0.0 0 58 86
1293 258 1 0.0 0 60 89
1294 258 1 0.0 3 62 87
1295 259 1 0.0 35 46 67
1296 259 1 0.0 32 47 69
1297 259 1 0.0 30 49 67
1298 259 1 0.0 30 52 67
1299 259 1 0.0 31 55 67
1300 260 1 0.0 96 72 21
1301 260 1 0.0 93 74 21
1302 260 1 0.0 95 72 21
1303 260 1 0.0 96 69 24
1304 260 1 0.0 93 69 21
1305 261 1 0.0 78 71 87
1306 261 1 0.0 80 71 88
1307 261 1 0.0 82 70 86
1308 261 1 0.0 84 71 83
1309 261 1 0.0 83 70 84
1310 262 1 0.0 84 74 4
1311 262 1 0.0 87 72 6
1312 262 1 0.0 87 71 7
1313 262 1 0.0 88 73 10
1314 262 1 0.0 85 76 11
1315 263 1 0.0 21 49 53
1316 263 1 0.0 19 48 51
1317 263 1 0.0 20 45 51
1318 263 1 0.0 18 43 53
1319 263 1 0.0 17 46 55
1320 264 1 0.0 94 38 44
1321 264 1 0.0 91 39 47
1322 264 1 0.0 90 40 47
1323 264 1 0.0 91 37 45
1324 264 1 0.0 94 39 42