ITEM: TIMESTEP
0
ITEM: NUMBER OF ATOMS
6000
ITEM: BOX BOUNDS pp pp pp
0 100
0 100
0 100
ITEM: ATOMS id type mol x y z bP
0 0 0 73 52 16 -1
1 0 0 74 47 17 -1
2 0 0 78 47 19 -1
3 0 0 79 49 23 -1
4 0 0 76 46 21 -1
5 0 1 98 21 54 -1
6 0 1 96 24 51 -1
7 0 1 1 25 52 -1
8 0 1 98 23 50 5458
9 0 1 97 24 47 5457
10 0 2 31 89 10 -1
11 0 2 28 90 12 -1
12 0 2 33 91 12 -1
13 0 2 30 94 14 -1
14 0 2 28 91 11 -1
15 0 3 32 12 71 -1
16 0 3 34 12 72 -1
17 0 3 30 12 75 -1
18 0 3 27 13 76 1606
19 0 3 25 11 80 -1
20 0 4 99 31 39 -1
21 0 4 96 31 38 -1
22 0 4 99 31 37 -1
23 0 4 99 30 41 -1
24 0 4 98 31 40 -1
25 0 5 99 40 68 -1
26 0 5 2 41 66 -1
27 0 5 0 38 66 -1
28 0 5 0 39 62 -1
29 0 5 97 35 62 -1
30 0 6 27 41 23 -1
31 0 6 24 39 20 -1
32 0 6 27 37 19 -1
33 0 6 28 33 19 -1
34 0 6 26 35 21 -1
35 0 7 61 17 8 -1
36 0 7 62 19 4 -1
37 0 7 60 18 3 -1
38 0 7 58 15 1 -1
39 0 7 57 16 3 -1
40 0 8 17 38 37 -1
41 0 8 15 40 38 -1
42 0 8 17 43 39 -1
43 0 8 16 47 40 -1
44 0 8 19 47 36 -1
45 0 9 57 66 49 -1
46 0 9 59 64 49 -1
47 0 9 55 65 52 -1
48 0 9 55 63 56 1600
49 0 9 55 65 56 -1
50 0 10 33 84 14 -1
51 0 10 30 82 17 -1
52 0 10 27 84 17 -1
53 0 10 24 83 14 -1
54 0 10 27 82 15 -1
55 0 11 16 7 50 -1
56 0 11 13 7 52 -1
57 0 11 15 9 55 -1
58 0 11 15 8 51 -1
59 0 11 18 6 48 -1
60 0 12 55 61 52 1929
61 0 12 52 58 55 1927
62 0 12 51 58 51 -1
63 0 12 54 61 54 -1
64 0 12 56 57 54 -1
65 0 13 16 30 14 -1
66 0 13 20 27 15 -1
67 0 13 20 28 15 -1
68 0 13 18 28 18 -1
69 0 13 15 29 16 -1
70 0 14 36 70 43 5415
71 0 14 40 69 46 -1
72 0 14 36 66 46 -1
73 0 14 37 64 43 -1
74 0 14 34 64 41 -1
75 0 15 9 67 64 -1
76 0 15 8 64 64 -1
77 0 15 10 63 63 -1
78 0 15 13 61 60 -1
79 0 15 10 61 57 -1
80 0 16 39 18 60 -1
81 0 16 40 15 61 -1
82 0 16 41 16 61 -1
83 0 16 36 15 60 -1
84 0 16 35 15 63 -1
85 0 17 56 11 4 -1
86 0 17 56 10 5 4375
87 0 17 55 10 6 -1
88 0 17 51 9 3 -1
89 0 17 48 11 3 -1
90 0 18 35 57 52 -1
91 0 18 39 60 52 -1
92 0 18 40 62 51 -1
93 0 18 41 62 49 5843
94 0 18 44 58 48 -1
95 0 19 38 90 66 -1
96 0 19 38 87 65 -1
97 0 19 41 87 66 -1
98 0 19 41 86 65 -1
99 0 19 41 85 64 5548
100 0 20 55 96 88 -1
101 0 20 56 98 86 -1
102 0 20 55 96 85 -1
103 0 20 59 96 87 -1
104 0 20 58 93 86 -1
105 0 21 80 19 36 -1
106 0 21 83 16 36 -1
107 0 21 81 17 33 -1
108 0 21 77 15 32 -1
109 0 21 81 17 32 -1
110 0 22 60 49 77 -1
111 0 22 60 50 80 -1
112 0 22 60 49 75 -1
113 0 22 60 51 75 -1
114 0 22 62 53 78 -1
115 0 23 19 38 70 -1
116 0 23 22 41 69 -1
117 0 23 20 43 72 -1
118 0 23 16 44 71 -1
119 0 23 14 43 69 -1
120 0 24 19 12 83 -1
121 0 24 18 12 86 -1
122 0 24 20 9 85 -1
123 0 24 20 12 81 -1
124 0 24 21 10 78 -1
125 0 25 13 70 78 -1
126 0 25 13 68 77 -1
127 0 25 12 72 76 -1
128 0 25 10 72 74 -1
129 0 25 12 71 70 -1
130 0 26 16 80 47 -1
131 0 26 18 80 48 -1
132 0 26 21 77 45 -1
133 0 26 22 78 42 -1
134 0 26 23 75 44 -1
135 0 27 70 52 3 -1
136 0 27 66 54 2 -1
137 0 27 68 57 1 -1
138 0 27 69 58 0 -1
139 0 27 68 58 99 -1
140 0 28 17 83 69 -1
141 0 28 18 85 72 1480
142 0 28 15 82 69 -1
143 0 28 12 78 69 -1
144 0 28 12 79 66 -1
145 0 29 92 11 3 -1
146 0 29 89 14 4 -1
147 0 29 91 16 4 -1
148 0 29 91 19 1 -1
149 0 29 89 21 98 -1
150 0 30 32 10 62 -1
151 0 30 31 12 62 2237
152 0 30 30 14 59 2238
153 0 30 30 14 54 -1
154 0 30 26 12 55 -1
155 0 31 44 65 90 -1
156 0 31 41 62 89 -1
157 0 31 37 59 90 -1
158 0 31 32 60 89 -1
159 0 31 35 57 90 -1
160 0 32 62 46 54 -1
161 0 32 62 43 51 -1
162 0 32 62 42 54 -1
163 0 32 65 43 55 4308
164 0 32 64 44 55 -1
165 0 33 31 33 29 -1
166 0 33 32 32 28 -1
167 0 33 29 29 26 -1
168 0 33 28 26 29 5387
169 0 33 24 27 29 -1
170 0 34 84 5 16 -1
171 0 34 87 4 16 -1
172 0 34 88 2 19 -1
173 0 34 84 4 18 -1
174 0 34 87 4 18 -1
175 0 35 11 25 2 -1
176 0 35 11 26 2 -1
177 0 35 14 23 2 -1
178 0 35 11 23 4 -1
179 0 35 7 24 4 -1
180 0 36 18 80 55 -1
181 0 36 15 83 56 -1
182 0 36 18 83 55 -1
183 0 36 19 84 59 -1
184 0 36 18 83 62 -1
185 0 37 22 62 71 5499
186 0 37 24 58 73 5905
187 0 37 28 57 73 -1
188 0 37 31 60 71 -1
189 0 37 32 57 68 -1
190 0 38 70 64 46 -1
191 0 38 70 63 45 -1
192 0 38 69 59 44 -1
193 0 38 69 57 40 -1
194 0 38 72 60 43 -1
195 0 39 88 63 22 -1
196 0 39 89 64 21 -1
197 0 39 93 66 20 -1
198 0 39 96 65 16 -1
199 0 39 97 65 21 1900
200 0 40 42 45 43 -1
201 0 40 39 48 40 -1
202 0 40 39 45 39 -1
203 0 40 44 45 40 -1
204 0 40 47 43 37 -1
205 0 41 35 13 16 -1
206 0 41 37 13 20 -1
207 0 41 42 13 20 -1
208 0 41 43 16 22 -1
209 0 41 45 20 24 -1
210 0 42 41 90 96 -1
211 0 42 39 94 96 -1
212 0 42 40 95 94 -1
213 0 42 40 94 91 -1
214 0 42 37 96 93 -1
215 0 43 98 19 16 -1
216 0 43 99 17 17 -1
217 0 43 97 14 18 -1
218 0 43 0 12 21 -1
219 0 43 4 13 20 5543
220 0 44 35 53 14 -1
221 0 44 32 54 11 -1
222 0 44 32 56 12 -1
223 0 44 30 59 9 -1
224 0 44 30 59 6 -1
225 0 45 22 83 71 -1
226 0 45 23 79 71 -1
227 0 45 18 79 72 -1
228 0 45 17 83 70 -1
229 0 45 18 85 71 -1
230 0 46 90 70 44 -1
231 0 46 91 71 44 4403
232 0 46 86 71 44 -1
233 0 46 84 69 47 -1
234 0 46 83 67 43 -1
235 0 47 17 1 10 -1
236 0 47 18 1 15 -1
237 0 47 18 5 16 -1
238 0 47 19 3 17 -1
239 0 47 18 99 15 -1
240 0 48 50 24 7 -1
241 0 48 47 23 3 -1
242 0 48 50 22 0 -1
243 0 48 52 19 99 -1
244 0 48 55 17 97 -1
245 0 49 92 79 89 5513
246 0 49 92 74 90 1501
247 0 49 89 78 91 4949
248 0 49 89 81 88 -1
249 0 49 88 82 92 -1
250 0 50 95 75 8 -1
251 0 50 99 75 5 -1
252 0 50 98 77 5 -1
253 0 50 98 78 3 -1
254 0 50 99 78 3 4744
255 0 51 96 63 56 -1
256 0 51 95 59 53 -1
257 0 51 93 56 53 -1
258 0 51 94 56 56 -1
259 0 51 92 53 59 -1
260 0 52 0 68 30 -1
261 0 52 1 68 27 -1
262 0 52 5 69 29 -1
263 0 52 3 70 30 -1
264 0 52 3 71 29 -1
265 0 53 81 64 46 -1
266 0 53 81 61 43 -1
267 0 53 85 59 43 -1
268 0 53 87 61 47 -1
269 0 53 84 63 46 -1
270 0 54 27 22 22 -1
271 0 54 29 23 25 -1
272 0 54 31 23 24 -1
273 0 54 28 22 26 -1
274 0 54 32 24 27 -1
275 0 55 4 69 34 -1
276 0 55 1 66 34 -1
277 0 55 98 67 31 -1
278 0 55 3 67 30 -1
279 0 55 3 69 27 -1
280 0 56 40 23 81 -1
281 0 56 41 19 83 -1
282 0 56 44 15 84 -1
283 0 56 46 14 81 -1
284 0 56 47 13 82 -1
285 0 57 85 66 32 -1
286 0 57 86 67 27 -1
287 0 57 87 66 27 4636
288 0 57 86 69 28 -1
289 0 57 85 70 30 -1
290 0 58 21 93 38 -1
291 0 58 22 90 36 -1
292 0 58 19 91 39 -1
293 0 58 22 91 39 -1
294 0 58 22 93 38 5591
295 0 59 5 97 31 -1
296 0 59 9 0 31 -1
297 0 59 9 98 32 -1
298 0 59 8 1 34 5211
299 0 59 10 1 33 -1
300 0 60 4 96 69 -1
301 0 60 3 95 71 -1
302 0 60 1 95 67 -1
303 0 60 98 96 69 4442
304 0 60 95 98 69 -1
305 0 61 53 60 47 -1
306 0 61 50 56 47 -1
307 0 61 47 56 49 -1
308 0 61 46 53 48 -1
309 0 61 45 56 50 -1
310 0 62 3 45 58 -1
311 0 62 99 43 56 2215
312 0 62 97 43 56 -1
313 0 62 99 47 56 -1
314 0 62 2 46 54 -1
315 0 63 25 96 82 -1
316 0 63 23 95 80 -1
317 0 63 20 96 83 -1
318 0 63 21 96 79 -1
319 0 63 18 95 78 -1
320 0 64 16 62 81 -1
321 0 64 13 64 80 -1
322 0 64 13 62 83 -1
323 0 64 13 62 84 -1
324 0 64 17 62 86 -1
325 0 65 94 68 25 -1
326 0 65 99 68 26 -1
327 0 65 0 67 21 -1
328 0 65 96 66 22 -1
329 0 65 99 64 20 -1
330 0 66 69 95 13 -1
331 0 66 68 91 11 -1
332 0 66 70 95 10 -1
333 0 66 74 92 9 -1
334 0 66 73 96 9 -1
335 0 67 53 13 42 -1
336 0 67 51 12 38 -1
337 0 67 49 12 42 -1
338 0 67 50 10 38 -1
339 0 67 48 13 38 2224
340 0 68 82 95 27 -1
341 0 68 82 98 27 -1
342 0 68 84 96 25 -1
343 0 68 86 92 25 4269
344 0 68 84 92 23 -1
345 0 69 7 21 9 -1
346 0 69 10 20 13 -1
347 0 69 9 21 14 2145
348 0 69 10 19 16 -1
349 0 69 6 20 13 2146
350 0 70 54 78 25 -1
351 0 70 51 78 23 -1
352 0 70 47 78 26 -1
353 0 70 47 76 29 -1
354 0 70 48 74 25 -1
355 0 71 61 1 46 5404
356 0 71 59 4 43 -1
357 0 71 59 9 43 5306
358 0 71 56 10 41 5301
359 0 71 52 11 44 -1
360 0 72 30 79 46 -1
361 0 72 28 78 47 5414
362 0 72 28 80 46 -1
363 0 72 32 81 43 -1
364 0 72 31 81 41 -1
365 0 73 26 19 86 -1
366 0 73 24 16 86 -1
367 0 73 26 16 89 -1
368 0 73 29 12 88 -1
369 0 73 27 13 87 -1
370 0 74 83 13 34 -1
371 0 74 81 11 30 -1
372 0 74 85 13 31 -1
373 0 74 82 10 29 -1
374 0 74 79 7 26 5758
375 0 75 70 96 94 4627
376 0 75 72 96 90 4433
377 0 75 71 98 86 -1
378 0 75 74 97 86 -1
379 0 75 76 99 90 -1
380 0 76 35 32 68 -1
381 0 76 35 34 68 -1
382 0 76 34 37 71 4513
383 0 76 31 33 70 4514
384 0 76 32 35 66 -1
385 0 77 97 35 90 -1
386 0 77 98 31 88 -1
387 0 77 0 30 87 -1
388 0 77 1 30 86 -1
389 0 77 1 35 86 -1
390 0 78 63 96 33 -1
391 0 78 66 96 34 -1
392 0 78 63 96 35 -1
393 0 78 65 98 33 -1
394 0 78 63 99 30 -1
395 0 79 77 53 12 -1
396 0 79 77 56 12 5242
397 0 79 81 53 12 -1
398 0 79 83 56 11 -1
399 0 79 80 55 10 -1
400 0 80 19 88 38 2460
401 0 80 18 92 38 -1
402 0 80 16 93 37 -1
403 0 80 20 94 34 -1
404 0 80 24 92 34 -1
405 0 81 27 96 0 -1
406 0 81 32 96 99 -1
407 0 81 28 97 99 -1
408 0 81 24 0 98 -1
409 0 81 25 3 1 -1
410 0 82 66 74 71 -1
411 0 82 66 77 73 1261
412 0 82 69 77 76 -1
413 0 82 72 76 77 -1
414 0 82 73 75 77 -1
415 0 83 39 46 88 -1
416 0 83 39 48 90 -1
417 0 83 35 48 89 -1
418 0 83 36 51 85 1720
419 0 83 37 55 85 5770
420 0 84 19 68 36 -1
421 0 84 16 65 38 4473
422 0 84 15 67 42 -1
423 0 84 15 70 42 -1
424 0 84 14 67 39 -1
425 0 85 31 69 63 -1
426 0 85 29 70 62 -1
427 0 85 28 67 64 -1
428 0 85 26 65 66 -1
429 0 85 26 67 64 -1
430 0 86 58 66 74 -1
431 0 86 59 69 71 -1
432 0 86 59 72 71 -1
433 0 86 58 71 74 1328
434 0 86 61 72 77 -1
435 0 87 6 38 50 -1
436 0 87 7 41 50 -1
437 0 87 8 41 53 -1
438 0 87 6 45 51 -1
439 0 87 3 48 51 -1
440 0 88 14 27 33 -1
441 0 88 15 30 34 -1
442 0 88 17 33 31 -1
443 0 88 15 34 35 -1
444 0 88 13 37 37 1449
445 0 89 86 50 72 -1
446 0 89 89 47 71 -1
447 0 89 86 45 71 -1
448 0 89 81 44 72 -1
449 0 89 86 43 72 -1
450 0 90 33 77 62 5850
451 0 90 32 80 65 -1
452 0 90 35 82 67 -1
453 0 90 33 79 64 -1
454 0 90 36 83 64 5546
455 0 91 33 93 69 -1
456 0 91 35 92 66 -1
457 0 91 35 88 64 4804
458 0 91 36 88 63 4808
459 0 91 38 91 60 -1
460 0 92 60 40 26 -1
461 0 92 61 44 29 -1
462 0 92 59 48 31 -1
463 0 92 56 50 28 -1
464 0 92 55 51 28 5836
465 0 93 21 96 77 -1
466 0 93 20 95 74 -1
467 0 93 17 95 76 -1
468 0 93 18 92 72 -1
469 0 93 18 92 67 -1
470 0 94 37 42 33 4889
471 0 94 36 38 36 -1
472 0 94 38 40 33 -1
473 0 94 36 42 31 -1
474 0 94 35 39 29 -1
475 0 95 7 28 55 -1
476 0 95 8 28 56 -1
477 0 95 10 26 56 -1
478 0 95 10 27 52 -1
479 0 95 12 24 55 1493
480 0 96 18 60 89 -1
481 0 96 14 61 89 -1
482 0 96 18 60 91 -1
483 0 96 21 61 94 -1
484 0 96 23 61 95 -1
485 0 97 58 66 16 -1
486 0 97 62 69 16 -1
487 0 97 64 71 19 -1
488 0 97 61 71 19 -1
489 0 97 60 68 15 -1
490 0 98 61 56 94 -1
491 0 98 63 56 92 -1
492 0 98 60 60 93 -1
493 0 98 64 59 92 -1
494 0 98 67 61 92 4556
495 0 99 76 15 13 -1
496 0 99 80 12 14 -1
497 0 99 75 11 13 -1
498 0 99 78 11 10 -1
499 0 99 80 7 10 5925
500 0 100 56 20 13 -1
501 0 100 56 22 12 -1
502 0 100 56 17 12 -1
503 0 100 56 18 9 -1
504 0 100 54 20 10 -1
505 0 101 62 40 80 -1
506 0 101 59 37 77 -1
507 0 101 59 35 75 -1
508 0 101 57 33 76 -1
509 0 101 61 32 77 -1
510 0 102 72 21 52 -1
511 0 102 72 21 49 -1
512 0 102 75 22 53 -1
513 0 102 75 19 52 -1
514 0 102 78 19 51 -1
515 0 103 23 71 54 -1
516 0 103 24 66 53 -1
517 0 103 27 70 54 -1
518 0 103 28 67 51 -1
519 0 103 28 63 51 2362
520 0 104 97 97 82 -1
521 0 104 1 95 82 -1
522 0 104 2 90 83 -1
523 0 104 4 94 84 -1
524 0 104 4 91 88 -1
525 0 105 86 79 14 -1
526 0 105 86 77 18 -1
527 0 105 88 79 17 -1
528 0 105 88 76 16 -1
529 0 105 89 77 16 -1
530 0 106 1 81 73 2397
531 0 106 3 82 74 -1
532 0 106 2 84 77 -1
533 0 106 5 85 78 2396
534 0 106 7 82 78 -1
535 0 107 11 24 54 1494
536 0 107 14 25 56 -1
537 0 107 11 27 53 -1
538 0 107 12 28 50 -1
539 0 107 9 26 50 -1
540 0 108 5 58 23 -1
541 0 108 4 60 25 -1
542 0 108 99 60 26 -1
543 0 108 99 56 23 -1
544 0 108 97 54 27 -1
545 0 109 6 66 24 -1
546 0 109 4 69 27 -1
547 0 109 4 70 23 -1
548 0 109 2 69 22 -1
549 0 109 0 69 22 -1
550 0 110 73 9 50 -1
551 0 110 76 11 50 -1
552 0 110 75 10 49 -1
553 0 110 74 8 52 4529
554 0 110 74 10 54 -1
555 0 111 40 1 20 -1
556 0 111 40 99 17 -1
557 0 111 41 99 21 -1
558 0 111 40 0 22 -1
559 0 111 41 4 21 -1
560 0 112 26 49 26 -1
561 0 112 31 48 25 -1
562 0 112 31 52 27 -1
563 0 112 30 54 28 -1
564 0 112 34 52 29 4891
565 0 113 67 79 55 -1
566 0 113 69 81 51 -1
567 0 113 72 82 55 -1
568 0 113 72 80 55 -1
569 0 113 72 82 56 -1
570 0 114 74 62 34 -1
571 0 114 72 59 34 2384
572 0 114 71 62 38 -1
573 0 114 71 61 39 -1
574 0 114 72 62 42 -1
575 0 115 69 41 25 1407
576 0 115 67 38 24 -1
577 0 115 66 40 27 -1
578 0 115 63 43 25 -1
579 0 115 63 40 24 -1
580 0 116 9 98 37 1307
581 0 116 9 99 32 5765
582 0 116 8 1 32 1309
583 0 116 9 3 36 -1
584 0 116 8 5 40 -1
585 0 117 33 91 78 -1
586 0 117 32 91 80 -1
587 0 117 32 93 78 -1
588 0 117 27 93 79 4252
589 0 117 29 92 81 -1
590 0 118 87 11 94 1949
591 0 118 90 12 95 -1
592 0 118 88 13 91 -1
593 0 118 87 15 90 -1
594 0 118 84 11 89 -1
595 0 119 8 11 77 -1
596 0 119 5 12 75 -1
597 0 119 4 9 73 -1
598 0 119 2 13 73 -1
599 0 119 5 10 71 5740
600 0 120 91 58 71 -1
601 0 120 95 58 73 -1
602 0 120 93 59 74 -1
603 0 120 92 58 74 -1
604 0 120 92 54 74 -1
605 0 121 27 53 39 -1
606 0 121 27 51 35 -1
607 0 121 27 49 35 1465
608 0 121 25 48 31 -1
609 0 121 23 50 31 -1
610 0 122 88 87 84 1759
611 0 122 88 88 84 1991
612 0 122 91 85 84 1756
613 0 122 93 88 83 -1
614 0 122 94 93 84 1393
615 0 123 9 67 77 -1
616 0 123 7 65 79 5200
617 0 123 5 64 79 -1
618 0 123 4 62 79 -1
619 0 123 1 63 75 -1
620 0 124 45 26 6 -1
621 0 124 42 25 6 -1
622 0 124 43 25 10 -1
623 0 124 43 30 9 -1
624 0 124 46 31 5 -1
625 0 125 70 21 40 -1
626 0 125 69 19 36 2379
627 0 125 68 18 38 2376
628 0 125 73 17 39 -1
629 0 125 72 22 38 2378
630 0 126 99 34 21 -1
631 0 126 1 32 18 -1
632 0 126 2 34 18 -1
633 0 126 1 32 21 -1
634 0 126 3 35 19 -1
635 0 127 77 4 27 5946
636 0 127 75 7 28 -1
637 0 127 72 4 27 5297
638 0 127 72 2 28 -1
639 0 127 68 1 28 -1
640 0 128 27 80 76 -1
641 0 128 23 81 79 -1
642 0 128 23 80 84 -1
643 0 128 23 83 80 -1
644 0 128 20 81 77 -1
645 0 129 4 70 41 -1
646 0 129 6 67 39 4669
647 0 129 9 64 41 -1
648 0 129 12 62 42 -1
649 0 129 10 65 44 1528
650 0 130 87 15 56 -1
651 0 130 90 16 52 -1
652 0 130 88 20 54 -1
653 0 130 87 21 50 1713
654 0 130 83 20 49 -1
655 0 131 5 36 62 -1
656 0 131 3 36 58 1412
657 0 131 3 36 62 -1
658 0 131 5 39 65 -1
659 0 131 5 42 63 -1
660 0 132 77 4 18 -1
661 0 132 76 4 20 5757
662 0 132 76 6 19 -1
663 0 132 73 6 16 -1
664 0 132 75 8 13 -1
665 0 133 52 92 4 -1
666 0 133 51 88 6 -1
667 0 133 52 85 10 -1
668 0 133 53 82 7 -1
669 0 133 49 82 10 -1
670 0 134 77 93 63 -1
671 0 134 80 90 60 -1
672 0 134 81 88 60 -1
673 0 134 78 89 61 -1
674 0 134 75 89 59 -1
675 0 135 40 87 73 -1
676 0 135 43 85 74 -1
677 0 135 43 80 73 -1
678 0 135 43 79 75 -1
679 0 135 42 74 74 -1
680 0 136 4 18 49 -1
681 0 136 5 19 54 -1
682 0 136 3 22 53 -1
683 0 136 1 21 56 -1
684 0 136 4 25 55 -1
685 0 137 35 85 90 -1
686 0 137 36 87 89 -1
687 0 137 40 85 88 -1
688 0 137 41 82 88 -1
689 0 137 44 83 86 -1
690 0 138 50 28 21 4280
691 0 138 50 23 21 4282
692 0 138 49 27 21 -1
693 0 138 50 28 20 -1
694 0 138 53 27 22 4284
695 0 139 96 69 86 -1
696 0 139 95 71 83 -1
697 0 139 98 70 81 -1
698 0 139 95 69 82 -1
699 0 139 95 72 79 -1
700 0 140 58 83 56 -1
701 0 140 57 82 55 -1
702 0 140 59 81 51 -1
703 0 140 60 81 48 -1
704 0 140 63 82 45 -1
705 0 141 85 16 34 -1
706 0 141 89 18 34 4753
707 0 141 91 14 35 -1
708 0 141 91 13 35 -1
709 0 141 91 14 33 -1
710 0 142 15 76 67 -1
711 0 142 14 73 69 -1
712 0 142 18 73 72 -1
713 0 142 17 72 72 -1
714 0 142 19 75 72 -1
715 0 143 19 60 45 -1
716 0 143 18 64 43 -1
717 0 143 19 65 45 -1
718 0 143 19 64 44 -1
719 0 143 19 67 42 -1
720 0 144 72 67 3 -1
721 0 144 77 67 4 -1
722 0 144 75 66 4 -1
723 0 144 78 67 0 -1
724 0 144 77 69 1 -1
725 0 145 46 34 23 2334
726 0 145 48 33 20 -1
727 0 145 49 36 19 5827
728 0 145 50 33 18 1543
729 0 145 50 35 17 -1
730 0 146 47 88 96 1697
731 0 146 46 88 98 -1
732 0 146 49 88 95 -1
733 0 146 46 89 95 2452
734 0 146 50 87 97 1698
735 0 147 12 43 38 -1
736 0 147 10 45 38 -1
737 0 147 9 47 39 -1
738 0 147 13 45 40 1473
739 0 147 10 46 44 -1
740 0 148 11 51 8 -1
741 0 148 12 52 10 -1
742 0 148 13 55 13 5429
743 0 148 13 52 10 5430
744 0 148 16 51 8 -1
745 0 149 19 11 35 -1
746 0 149 15 11 33 -1
747 0 149 15 14 30 -1
748 0 149 15 12 34 -1
749 0 149 13 13 30 -1
750 0 150 74 89 61 -1
751 0 150 70 90 60 5940
752 0 150 73 92 58 -1
753 0 150 72 95 62 -1
754 0 150 72 98 63 -1
755 0 151 46 31 21 -1
756 0 151 43 33 21 2333
757 0 151 45 36 22 -1
758 0 151 42 37 22 -1
759 0 151 45 33 22 -1
760 0 152 27 2 29 -1
761 0 152 27 5 31 -1
762 0 152 27 1 29 -1
763 0 152 29 1 27 -1
764 0 152 24 0 26 -1
765 0 153 72 33 1 -1
766 0 153 72 35 1 -1
767 0 153 76 34 4 -1
768 0 153 78 31 4 -1
769 0 153 81 33 1 -1
770 0 154 13 54 5 -1
771 0 154 13 51 8 -1
772 0 154 15 54 6 -1
773 0 154 15 52 8 -1
774 0 154 12 49 9 -1
775 0 155 14 8 68 2352
776 0 155 10 9 67 -1
777 0 155 7 7 68 -1
778 0 155 9 9 71 5737
779 0 155 9 5 73 -1
780 0 156 22 91 50 -1
781 0 156 21 89 53 -1
782 0 156 25 88 53 -1
783 0 156 28 86 53 -1
784 0 156 30 88 52 5724
785 0 157 33 82 29 -1
786 0 157 32 85 30 -1
787 0 157 36 83 29 -1
788 0 157 35 82 29 -1
789 0 157 37 82 26 -1
790 0 158 84 6 89 -1
791 0 158 83 7 90 2047
792 0 158 83 9 87 -1
793 0 158 81 7 88 -1
794 0 158 79 9 91 1947
795 0 159 80 78 0 1855
796 0 159 78 78 97 -1
797 0 159 80 79 98 1858
798 0 159 76 81 97 -1
799 0 159 79 82 95 1381
800 0 160 15 35 8 -1
801 0 160 16 33 11 -1
802 0 160 15 28 11 -1
803 0 160 11 30 11 -1
804 0 160 11 28 10 -1
805 0 161 54 59 54 -1
806 0 161 56 57 53 -1
807 0 161 57 53 51 -1
808 0 161 55 51 53 -1
809 0 161 54 55 52 -1
810 0 162 37 43 94 -1
811 0 162 34 46 94 -1
812 0 162 38 48 92 4714
813 0 162 39 50 94 -1
814 0 162 41 49 95 -1
815 0 163 83 41 1 -1
816 0 163 85 44 2 -1
817 0 163 86 40 99 -1
818 0 163 88 38 98 -1
819 0 163 90 35 98 -1
820 0 164 97 96 57 -1
821 0 164 98 96 54 -1
822 0 164 98 95 52 -1
823 0 164 96 98 49 -1
824 0 164 93 98 46 -1
825 0 165 69 72 95 -1
826 0 165 71 75 93 -1
827 0 165 72 77 90 -1
828 0 165 72 75 94 -1
829 0 165 72 73 95 -1
830 0 166 53 63 98 -1
831 0 166 49 63 1 -1
832 0 166 48 63 99 -1
833 0 166 47 62 2 -1
834 0 166 48 62 5 -1
835 0 167 38 98 25 -1
836 0 167 38 99 23 -1
837 0 167 38 2 25 -1
838 0 167 37 2 22 -1
839 0 167 35 1 26 1870
840 0 168 12 75 26 -1
841 0 168 11 75 27 -1
842 0 168 8 76 30 -1
843 0 168 10 77 29 -1
844 0 168 9 79 33 -1
845 0 169 99 97 4 -1
846 0 169 1 96 6 -1
847 0 169 0 99 6 -1
848 0 169 1 98 4 -1
849 0 169 99 95 6 -1
850 0 170 88 72 80 -1
851 0 170 85 72 82 5282
852 0 170 87 72 81 -1
853 0 170 85 68 82 -1
854 0 170 83 68 85 5285
855 0 171 6 75 38 -1
856 0 171 4 75 39 -1
857 0 171 5 73 39 -1
858 0 171 8 71 36 -1
859 0 171 12 69 36 -1
860 0 172 56 78 11 -1
861 0 172 51 79 12 -1
862 0 172 50 81 9 -1
863 0 172 46 80 8 -1
864 0 172 46 76 6 -1
865 0 173 68 46 53 -1
866 0 173 65 47 56 -1
867 0 173 67 46 59 4311
868 0 173 66 50 57 -1
869 0 173 64 52 60 -1
870 0 174 53 72 29 -1
871 0 174 56 74 30 1881
872 0 174 56 72 34 -1
873 0 174 57 75 37 -1
874 0 174 60 79 38 -1
875 0 175 33 57 62 -1
876 0 175 31 56 63 -1
877 0 175 33 54 67 -1
878 0 175 37 53 70 2021
879 0 175 40 54 73 -1
880 0 176 88 29 93 -1
881 0 176 87 30 92 -1
882 0 176 88 27 93 -1
883 0 176 90 30 91 -1
884 0 176 91 29 96 -1
885 0 177 90 77 99 5424
886 0 177 89 73 2 5710
887 0 177 89 76 98 5425
888 0 177 89 76 3 -1
889 0 177 92 73 4 2091
890 0 178 16 98 86 -1
891 0 178 15 97 89 -1
892 0 178 17 94 86 -1
893 0 178 21 92 85 5374
894 0 178 21 97 84 -1
895 0 179 93 36 46 -1
896 0 179 94 37 48 -1
897 0 179 90 36 51 -1
898 0 179 87 35 52 -1
899 0 179 84 32 55 -1
900 0 180 49 76 91 -1
901 0 180 50 78 88 -1
902 0 180 50 80 90 -1
903 0 180 50 83 92 -1
904 0 180 51 85 95 -1
905 0 181 34 50 28 -1
906 0 181 37 48 31 -1
907 0 181 36 49 33 -1
908 0 181 39 52 33 -1
909 0 181 36 50 36 -1
910 0 182 33 86 63 2205
911 0 182 35 87 59 -1
912 0 182 34 89 59 -1
913 0 182 31 88 55 -1
914 0 182 32 87 52 -1
915 0 183 74 96 99 -1
916 0 183 76 95 0 -1
917 0 183 78 93 97 -1
918 0 183 81 97 96 -1
919 0 183 80 2 97 -1
920 0 184 9 45 61 2219
921 0 184 7 44 63 -1
922 0 184 9 43 62 2218
923 0 184 13 42 62 -1
924 0 184 15 39 59 -1
925 0 185 40 40 40 -1
926 0 185 39 37 42 -1
927 0 185 41 38 46 -1
928 0 185 41 40 48 -1
929 0 185 39 38 50 -1
930 0 186 27 30 88 -1
931 0 186 22 30 88 -1
932 0 186 26 30 91 4801
933 0 186 27 30 91 4797
934 0 186 27 25 90 -1
935 0 187 91 76 99 -1
936 0 187 91 74 3 -1
937 0 187 94 71 6 -1
938 0 187 90 72 7 -1
939 0 187 91 70 6 -1
940 0 188 16 7 88 -1
941 0 188 18 4 85 -1
942 0 188 14 6 87 -1
943 0 188 15 5 87 -1
944 0 188 13 3 90 -1
945 0 189 91 93 22 -1
946 0 189 88 92 22 5462
947 0 189 88 95 22 4267
948 0 189 89 95 22 -1
949 0 189 92 92 22 -1
950 0 190 37 26 14 -1
951 0 190 38 25 10 -1
952 0 190 36 24 11 -1
953 0 190 33 24 7 -1
954 0 190 33 25 11 -1
955 0 191 31 58 80 5904
956 0 191 31 61 77 -1
957 0 191 33 63 75 4381
958 0 191 35 65 78 -1
959 0 191 30 64 77 -1
960 0 192 6 57 42 4821
961 0 192 9 59 43 -1
962 0 192 6 58 46 4538
963 0 192 4 58 48 4843
964 0 192 4 59 46 -1
965 0 193 84 27 86 -1
966 0 193 83 30 89 -1
967 0 193 86 31 86 -1
968 0 193 86 32 86 -1
969 0 193 89 33 88 -1
970 0 194 12 15 90 -1
971 0 194 13 15 94 -1
972 0 194 9 15 96 -1
973 0 194 5 17 94 4337
974 0 194 4 19 90 -1
975 0 195 27 15 13 -1
976 0 195 27 15 18 2405
977 0 195 23 18 19 -1
978 0 195 27 16 17 2408
979 0 195 29 18 15 2406
980 0 196 31 25 13 -1
981 0 196 30 24 16 1375
982 0 196 32 26 20 1378
983 0 196 28 28 22 -1
984 0 196 27 27 22 -1
985 0 197 10 46 83 5730
986 0 197 14 47 82 -1
987 0 197 16 49 82 -1
988 0 197 12 48 79 5731
989 0 197 10 47 79 -1
990 0 198 64 43 30 -1
991 0 198 63 45 33 -1
992 0 198 61 49 34 -1
993 0 198 62 47 35 -1
994 0 198 65 49 37 -1
995 0 199 91 75 88 -1
996 0 199 91 76 93 -1
997 0 199 93 74 94 -1
998 0 199 91 73 95 -1
999 0 199 89 73 93 -1
1000 0 200 12 86 7 -1
1001 0 200 14 86 5 -1
1002 0 200 15 83 2 -1
1003 0 200 15 85 98 -1
1004 0 200 12 87 98 1576
1005 0 201 54 55 88 -1
1006 0 201 51 55 85 5966
1007 0 201 54 53 82 -1
1008 0 201 54 52 79 -1
1009 0 201 54 47 79 -1
1010 0 202 3 69 92 -1
1011 0 202 1 71 89 -1
1012 0 202 99 69 92 -1
1013 0 202 1 68 93 -1
1014 0 202 5 68 95 -1
1015 0 203 84 80 3 -1
1016 0 203 84 81 2 -1
1017 0 203 82 80 4 -1
1018 0 203 81 76 4 5712
1019 0 203 81 73 7 -1
1020 0 204 54 8 36 5303
1021 0 204 58 10 38 -1
1022 0 204 60 11 37 -1
1023 0 204 58 13 34 -1
1024 0 204 57 16 37 -1
1025 0 205 19 69 57 -1
1026 0 205 19 69 58 -1
1027 0 205 16 68 61 -1
1028 0 205 15 70 62 -1
1029 0 205 12 74 63 -1
1030 0 206 46 49 67 2125
1031 0 206 47 48 62 -1
1032 0 206 47 49 62 -1
1033 0 206 45 49 64 -1
1034 0 206 44 51 65 -1
1035 0 207 84 90 87 -1
1036 0 207 82 86 85 -1
1037 0 207 82 86 89 -1
1038 0 207 80 89 91 -1
1039 0 207 76 90 92 -1
1040 0 208 16 3 68 -1
1041 0 208 17 5 64 -1
1042 0 208 16 4 67 2353
1043 0 208 13 6 64 4609
1044 0 208 10 4 64 2354
1045 0 209 86 44 80 -1
1046 0 209 86 44 77 -1
1047 0 209 81 44 78 -1
1048 0 209 85 43 77 -1
1049 0 209 82 44 73 -1
1050 0 210 31 67 93 4546
1051 0 210 29 70 95 -1
1052 0 210 28 72 94 -1
1053 0 210 29 75 93 -1
1054 0 210 31 78 93 -1
1055 0 211 3 55 35 5631
1056 0 211 2 55 33 5121
1057 0 211 5 55 35 -1
1058 0 211 8 57 33 -1
1059 0 211 11 59 32 -1
1060 0 212 47 84 44 -1
1061 0 212 44 85 40 -1
1062 0 212 49 84 40 -1
1063 0 212 45 85 40 -1
1064 0 212 45 86 36 -1
1065 0 213 78 66 47 -1
1066 0 213 76 64 48 -1
1067 0 213 79 67 48 -1
1068 0 213 80 66 47 -1
1069 0 213 83 63 49 -1
1070 0 214 72 65 50 -1
1071 0 214 70 64 50 -1
1072 0 214 67 62 50 -1
1073 0 214 68 64 53 -1
1074 0 214 65 64 53 -1
1075 0 215 55 82 18 -1
1076 0 215 51 83 21 -1
1077 0 215 48 80 20 -1
1078 0 215 48 77 16 -1
1079 0 215 47 78 13 -1
1080 0 216 87 51 8 -1
1081 0 216 88 50 11 -1
1082 0 216 84 49 9 -1
1083 0 216 87 53 8 -1
1084 0 216 87 48 9 -1
1085 0 217 98 50 63 -1
1086 0 217 96 52 66 5382
1087 0 217 96 48 68 -1
1088 0 217 94 44 69 -1
1089 0 217 97 45 70 -1
1090 0 218 79 13 87 -1
1091 0 218 82 10 90 -1
1092 0 218 85 10 92 -1
1093 0 218 85 10 88 -1
1094 0 218 84 7 90 -1
1095 0 219 13 53 20 -1
1096 0 219 15 52 21 -1
1097 0 219 15 53 22 -1
1098 0 219 17 50 19 -1
1099 0 219 18 50 16 -1
1100 0 220 54 14 4 -1
1101 0 220 52 11 3 2284
1102 0 220 49 13 5 -1
1103 0 220 54 12 5 -1
1104 0 220 51 13 6 -1
1105 0 221 12 41 36 -1
1106 0 221 12 43 33 -1
1107 0 221 14 42 36 -1
1108 0 221 14 46 37 5001
1109 0 221 14 49 40 1586
1110 0 222 98 49 31 -1
1111 0 222 96 51 28 2329
1112 0 222 95 52 29 -1
1113 0 222 93 55 28 2328
1114 0 222 91 59 27 -1
1115 0 223 36 52 44 -1
1116 0 223 39 49 47 -1
1117 0 223 35 49 49 -1
1118 0 223 34 50 49 -1
1119 0 223 30 50 46 -1
1120 0 224 8 94 72 -1
1121 0 224 7 92 71 -1
1122 0 224 6 95 72 -1
1123 0 224 7 91 71 -1
1124 0 224 6 88 67 -1
1125 0 225 23 49 45 -1
1126 0 225 21 52 42 -1
1127 0 225 21 49 43 -1
1128 0 225 23 51 43 -1
1129 0 225 22 53 43 -1
1130 0 226 85 20 31 -1
1131 0 226 84 16 30 -1
1132 0 226 84 15 35 -1
1133 0 226 87 12 32 -1
1134 0 226 89 10 30 -1
1135 0 227 37 48 1 -1
1136 0 227 35 45 99 -1
1137 0 227 37 42 0 -1
1138 0 227 36 44 98 -1
1139 0 227 39 42 1 -1
1140 0 228 11 30 10 1545
1141 0 228 9 27 11 -1
1142 0 228 5 25 9 -1
1143 0 228 6 28 8 -1
1144 0 228 5 31 10 -1
1145 0 229 33 82 59 -1
1146 0 229 35 79 58 -1
1147 0 229 32 80 62 5341
1148 0 229 33 78 66 4517
1149 0 229 31 82 65 -1
1150 0 230 62 71 2 -1
1151 0 230 63 70 98 -1
1152 0 230 63 69 98 -1
1153 0 230 60 69 2 -1
1154 0 230 63 68 2 4965
1155 0 231 63 81 89 -1
1156 0 231 65 82 92 -1
1157 0 231 64 83 92 -1
1158 0 231 63 85 91 -1
1159 0 231 62 82 90 -1
1160 0 232 89 71 19 -1
1161 0 232 90 69 20 -1
1162 0 232 91 66 21 -1
1163 0 232 94 67 24 -1
1164 0 232 93 65 21 -1
1165 0 233 21 78 17 -1
1166 0 233 20 81 19 -1
1167 0 233 23 81 21 -1
1168 0 233 20 80 17 -1
1169 0 233 23 81 17 -1
1170 0 234 77 28 90 -1
1171 0 234 78 29 90 -1
1172 0 234 80 33 91 -1
1173 0 234 79 34 88 -1
1174 0 234 79 32 88 -1
1175 0 235 57 67 70 -1
1176 0 235 61 67 68 -1
1177 0 235 61 63 68 -1
1178 0 235 60 64 70 -1
1179 0 235 60 64 67 -1
1180 0 236 99 50 45 -1
1181 0 236 95 48 44 -1
1182 0 236 98 48 48 -1
1183 0 236 99 45 47 -1
1184 0 236 3 44 49 -1
1185 0 237 7 2 57 4296
1186 0 237 6 2 56 -1
1187 0 237 9 5 55 -1
1188 0 237 8 2 57 -1
1189 0 237 13 1 58 -1
1190 0 238 47 37 44 -1
1191 0 238 48 37 43 -1
1192 0 238 48 38 46 -1
1193 0 238 45 37 44 -1
1194 0 238 42 38 41 -1
1195 0 239 85 47 4 -1
1196 0 239 87 44 5 -1
1197 0 239 88 41 5 -1
1198 0 239 90 44 4 -1
1199 0 239 88 43 3 -1
1200 0 240 36 18 8 -1
1201 0 240 39 20 5 -1
1202 0 240 40 20 2 -1
1203 0 240 42 16 4 -1
1204 0 240 45 16 3 5802
1205 0 241 71 35 88 -1
1206 0 241 70 35 89 -1
1207 0 241 71 38 91 -1
1208 0 241 75 37 91 -1
1209 0 241 74 41 94 -1
1210 0 242 70 97 66 -1
1211 0 242 68 95 65 -1
1212 0 242 67 95 62 -1
1213 0 242 70 96 66 -1
1214 0 242 68 98 67 -1
1215 0 243 95 23 31 -1
1216 0 243 92 21 34 -1
1217 0 243 96 19 36 -1
1218 0 243 94 15 38 5505
1219 0 243 93 17 41 -1
1220 0 244 59 95 9 -1
1221 0 244 54 95 9 -1
1222 0 244 55 95 8 -1
1223 0 244 56 98 10 -1
1224 0 244 57 0 7 -1
1225 0 245 95 18 4 -1
1226 0 245 94 19 7 -1
1227 0 245 94 18 9 -1
1228 0 245 90 17 7 -1
1229 0 245 93 16 6 -1
1230 0 246 79 65 80 -1
1231 0 246 83 67 82 5283
1232 0 246 82 67 81 -1
1233 0 246 78 66 79 -1
1234 0 246 81 69 76 -1
1235 0 247 85 66 69 -1
1236 0 247 88 69 70 5696
1237 0 247 85 68 74 -1
1238 0 247 81 69 75 -1
1239 0 247 82 64 75 -1
1240 0 248 57 78 13 -1
1241 0 248 58 75 11 -1
1242 0 248 57 73 11 -1
1243 0 248 60 74 15 -1
1244 0 248 57 76 14 -1
1245 0 249 52 95 4 -1
1246 0 249 49 96 5 -1
1247 0 249 50 99 3 -1
1248 0 249 52 98 6 -1
1249 0 249 53 98 6 -1
1250 1 250 74 80 83 -1
1251 1 250 76 80 87 -1
1252 1 250 74 81 90 -1
1253 1 250 72 81 92 -1
1254 1 250 72 78 90 -1
1255 1 251 5 88 33 -1
1256 1 251 9 86 33 -1
1257 1 251 10 87 34 -1
1258 1 251 9 91 37 -1
1259 1 251 9 87 36 3422
1260 1 252 67 79 76 -1
1261 1 252 65 76 74 411
1262 1 252 61 77 75 -1
1263 1 252 64 80 78 -1
1264 1 252 62 81 79 -1
1265 1 253 59 53 99 -1
1266 1 253 61 56 99 -1
1267 1 253 61 51 0 -1
1268 1 253 60 55 99 -1
1269 1 253 64 57 1 -1
1270 1 254 24 40 54 -1
1271 1 254 23 43 51 3709
1272 1 254 24 46 49 -1
1273 1 254 20 45 47 3119
1274 1 254 23 45 47 -1
1275 1 255 54 74 71 -1
1276 1 255 51 71 74 2582
1277 1 255 48 69 71 -1
1278 1 255 49 66 69 -1
1279 1 255 50 61 69 -1
1280 1 256 47 27 91 -1
1281 1 256 45 30 88 -1
1282 1 256 45 34 86 3462
1283 1 256 46 31 82 -1
1284 1 256 47 34 86 -1
1285 1 257 73 0 49 -1
1286 1 257 71 0 50 -1
1287 1 257 66 1 49 -1
1288 1 257 66 1 54 -1
1289 1 257 66 3 58 -1
1290 1 258 78 12 99 -1
1291 1 258 77 13 96 -1
1292 1 258 75 10 95 -1
1293 1 258 73 11 95 -1
1294 1 258 68 11 94 -1
1295 1 259 64 10 90 -1
1296 1 259 67 10 90 3692
1297 1 259 64 9 87 -1
1298 1 259 63 9 85 -1
1299 1 259 64 14 84 -1
1300 1 260 56 47 74 -1
1301 1 260 55 48 74 -1
1302 1 260 52 50 75 -1
1303 1 260 48 49 72 -1
1304 1 260 48 51 70 -1
1305 1 261 8 0 39 -1
1306 1 261 10 98 40 -1
1307 1 261 9 99 36 580
1308 1 261 5 99 37 3029
1309 1 261 8 0 33 582
1310 1 262 56 55 46 -1
1311 1 262 58 53 46 -1
1312 1 262 57 53 41 -1
1313 1 262 57 52 42 -1
1314 1 262 60 52 46 2901
1315 1 263 69 20 34 -1
1316 1 263 67 22 36 -1
1317 1 263 64 20 36 -1
1318 1 263 61 20 35 -1
1319 1 263 59 21 36 -1
1320 1 264 30 56 29 -1
1321 1 264 35 55 28 -1
1322 1 264 38 54 27 -1
1323 1 264 38 50 24 -1
1324 1 264 43 51 24 -1
1325 1 265 57 69 76 -1
1326 1 265 56 72 78 -1
1327 1 265 53 72 76 -1
1328 1 265 57 70 75 433
1329 1 265 58 70 71 -1
1330 1 266 73 67 64 -1
1331 1 266 74 68 62 -1
1332 1 266 70 67 59 -1
1333 1 266 73 68 61 -1
1334 1 266 76 71 59 -1
1335 1 267 10 10 41 -1
1336 1 267 12 12 40 -1
1337 1 267 10 9 42 -1
1338 1 267 10 9 38 -1
1339 1 267 6 6 37 -1
1340 1 268 34 73 75 -1
1341 1 268 33 77 78 -1
1342 1 268 33 75 77 -1
1343 1 268 33 74 72 -1
1344 1 268 33 76 75 -1
1345 1 269 56 74 88 -1
1346 1 269 58 78 87 3084
1347 1 269 55 82 87 3385
1348 1 269 55 79 86 -1
1349 1 269 58 81 88 -1
1350 1 270 56 96 23 -1
1351 1 270 59 97 25 -1
1352 1 270 56 99 22 -1
1353 1 270 58 97 22 -1
1354 1 270 60 0 19 -1
1355 1 271 64 33 74 -1
1356 1 271 61 34 74 -1
1357 1 271 65 37 74 -1
1358 1 271 66 37 70 -1
1359 1 271 66 40 68 -1
1360 1 272 1 26 77 -1
1361 1 272 4 26 81 -1
1362 1 272 99 26 80 -1
1363 1 272 3 25 82 -1
1364 1 272 1 28 84 -1
1365 1 273 75 63 38 3946
1366 1 273 76 65 41 -1
1367 1 273 79 62 38 -1
1368 1 273 81 61 36 -1
1369 1 273 82 63 37 -1
1370 1 274 46 3 55 -1
1371 1 274 49 1 57 -1