ITEM: TIMESTEP
0
ITEM: NUMBER OF ATOMS
6000
ITEM: BOX BOUNDS pp pp pp
0 100
0 100
0 100
ITEM: ATOMS id type mol x y z bP
0 0 0 45 54 43 -1
1 0 0 47 56 46 5121
2 0 0 51 55 45 5614
3 0 0 50 55 40 -1
4 0 0 47 52 38 4309
5 0 1 54 87 13 -1
6 0 1 55 84 10 -1
7 0 1 57 85 9 -1
8 0 1 54 87 6 -1
9 0 1 53 86 4 2332
10 0 2 25 90 4 1841
11 0 2 23 93 4 1840
12 0 2 24 88 3 -1
13 0 2 22 88 2 -1
14 0 2 20 92 1 1842
15 0 3 56 37 57 1607
16 0 3 56 35 53 -1
17 0 3 60 38 52 4575
18 0 3 60 38 55 2381
19 0 3 59 37 59 2106
20 0 4 58 43 44 4645
21 0 4 55 45 44 1758
22 0 4 56 42 40 4648
23 0 4 59 42 42 -1
24 0 4 57 42 46 1751
25 0 5 46 60 43 -1
26 0 5 47 64 43 5565
27 0 5 47 64 46 5564
28 0 5 47 59 47 4624
29 0 5 47 57 48 1454
30 0 6 5 61 69 1597
31 0 6 6 57 66 -1
32 0 6 6 59 65 1598
33 0 6 5 59 68 1599
34 0 6 6 61 71 1595
35 0 7 34 38 54 -1
36 0 7 30 37 55 -1
37 0 7 31 36 58 -1
38 0 7 28 33 60 -1
39 0 7 24 31 59 -1
40 0 8 45 49 36 5623
41 0 8 46 46 32 -1
42 0 8 47 45 35 -1
43 0 8 50 47 33 -1
44 0 8 53 50 35 -1
45 0 9 23 84 10 -1
46 0 9 22 84 8 -1
47 0 9 18 83 8 -1
48 0 9 18 78 7 -1
49 0 9 21 75 8 -1
50 0 10 40 51 39 4955
51 0 10 42 53 38 5028
52 0 10 42 52 39 2318
53 0 10 40 55 39 -1
54 0 10 40 60 39 1805
55 0 11 53 50 25 -1
56 0 11 58 51 25 1966
57 0 11 57 51 28 -1
58 0 11 58 53 24 -1
59 0 11 60 52 24 -1
60 0 12 47 29 26 -1
61 0 12 47 30 27 -1
62 0 12 47 32 24 1819
63 0 12 49 29 24 1815
64 0 12 45 31 25 -1
65 0 13 55 36 40 -1
66 0 13 59 37 38 -1
67 0 13 59 35 35 -1
68 0 13 57 35 33 5479
69 0 13 60 35 29 -1
70 0 14 47 32 58 5423
71 0 14 50 34 55 2176
72 0 14 46 34 56 1459
73 0 14 45 38 58 5805
74 0 14 47 39 56 5889
75 0 15 34 54 93 -1
76 0 15 31 52 92 -1
77 0 15 28 53 89 -1
78 0 15 30 55 88 -1
79 0 15 32 56 86 -1
80 0 16 49 52 49 5667
81 0 16 48 50 48 5665
82 0 16 49 54 46 -1
83 0 16 52 52 43 1365
84 0 16 51 54 44 5949
85 0 17 60 36 56 -1
86 0 17 58 39 56 -1
87 0 17 53 38 56 -1
88 0 17 51 38 53 4660
89 0 17 50 39 52 2456
90 0 18 14 81 63 -1
91 0 18 17 80 63 -1
92 0 18 15 80 59 -1
93 0 18 10 80 58 1250
94 0 18 11 78 58 -1
95 0 19 94 17 97 -1
96 0 19 92 20 0 -1
97 0 19 93 18 2 -1
98 0 19 94 20 98 -1
99 0 19 93 16 98 -1
100 0 20 57 43 48 1620
101 0 20 60 40 51 1860
102 0 20 63 38 48 4976
103 0 20 58 37 48 1387
104 0 20 59 34 44 2320
105 0 21 46 33 54 1332
106 0 21 50 32 56 2015
107 0 21 46 32 54 1458
108 0 21 47 31 54 1333
109 0 21 45 33 56 -1
110 0 22 63 46 54 4603
111 0 22 68 45 54 -1
112 0 22 68 44 49 -1
113 0 22 64 41 49 5532
114 0 22 67 43 46 -1
115 0 23 66 57 83 -1
116 0 23 64 53 85 -1
117 0 23 68 51 83 -1
118 0 23 70 47 81 -1
119 0 23 73 46 78 -1
120 0 24 65 34 52 2425
121 0 24 63 37 54 2383
122 0 24 65 36 54 5110
123 0 24 66 32 56 2384
124 0 24 67 35 55 2069
125 0 25 67 38 51 1722
126 0 25 66 35 47 4904
127 0 25 65 35 43 4931
128 0 25 66 38 47 4974
129 0 25 66 35 46 5971
130 0 26 61 23 47 -1
131 0 26 61 26 47 1496
132 0 26 60 29 46 5233
133 0 26 60 34 47 5236
134 0 26 59 35 51 5570
135 0 27 45 30 58 1334
136 0 27 44 29 63 -1
137 0 27 43 27 63 -1
138 0 27 38 28 64 -1
139 0 27 38 31 62 -1
140 0 28 63 42 43 2113
141 0 28 62 42 46 4605
142 0 28 66 45 47 4319
143 0 28 65 42 45 5145
144 0 28 64 39 44 2344
145 0 29 79 99 25 -1
146 0 29 80 97 23 4781
147 0 29 78 94 24 -1
148 0 29 79 97 24 -1
149 0 29 81 96 27 4780
150 0 30 25 47 17 -1
151 0 30 24 46 14 -1
152 0 30 27 42 14 -1
153 0 30 25 42 17 -1
154 0 30 22 41 20 -1
155 0 31 72 49 14 -1
156 0 31 69 49 15 -1
157 0 31 69 53 14 -1
158 0 31 67 51 13 -1
159 0 31 70 50 14 -1
160 0 32 92 72 62 -1
161 0 32 90 69 64 -1
162 0 32 90 71 67 -1
163 0 32 93 73 69 -1
164 0 32 98 73 69 -1
165 0 33 46 43 59 4263
166 0 33 45 45 55 2118
167 0 33 44 45 52 5299
168 0 33 41 45 55 1476
169 0 33 41 49 57 -1
170 0 34 39 47 29 -1
171 0 34 38 48 34 -1
172 0 34 38 45 31 5015
173 0 34 40 47 34 -1
174 0 34 39 47 32 5625
175 0 35 67 34 54 4415
176 0 35 69 31 52 5644
177 0 35 67 31 54 -1
178 0 35 69 31 53 5915
179 0 35 68 30 53 -1
180 0 36 57 48 45 4681
181 0 36 59 47 43 1473
182 0 36 60 44 47 1861
183 0 36 62 43 49 1411
184 0 36 59 40 51 4288
185 0 37 27 71 31 -1
186 0 37 23 72 29 -1
187 0 37 22 75 32 -1
188 0 37 25 73 29 -1
189 0 37 23 73 26 -1
190 0 38 55 37 31 1463
191 0 38 56 40 28 5171
192 0 38 55 43 27 4515
193 0 38 52 44 24 5238
194 0 38 48 47 24 -1
195 0 39 69 32 52 5649
196 0 39 69 35 49 5495
197 0 39 65 33 47 4765
198 0 39 68 31 44 2012
199 0 39 68 30 49 5443
200 0 40 49 43 52 4881
201 0 40 49 43 49 1654
202 0 40 54 42 49 5166
203 0 40 54 42 47 -1
204 0 40 55 44 46 1757
205 0 41 70 1 50 -1
206 0 41 67 4 52 -1
207 0 41 67 2 49 -1
208 0 41 71 2 49 -1
209 0 41 72 5 51 -1
210 0 42 54 49 38 4679
211 0 42 52 49 37 1556
212 0 42 49 46 39 1903
213 0 42 53 47 41 1555
214 0 42 57 45 40 5406
215 0 43 47 49 46 5784
216 0 43 47 53 45 5612
217 0 43 44 54 46 5122
218 0 43 43 53 44 5035
219 0 43 42 52 43 2235
220 0 44 52 40 40 5340
221 0 44 51 40 38 2146
222 0 44 51 35 37 4450
223 0 44 49 31 37 4843
224 0 44 48 34 33 4839
225 0 45 43 34 45 5990
226 0 45 42 38 45 2029
227 0 45 45 42 45 5343
228 0 45 43 42 41 -1
229 0 45 44 43 44 -1
230 0 46 52 15 65 -1
231 0 46 50 14 67 -1
232 0 46 50 15 64 -1
233 0 46 50 12 67 -1
234 0 46 49 11 65 -1
235 0 47 40 58 41 1316
236 0 47 39 55 42 5546
237 0 47 41 53 43 5045
238 0 47 44 50 43 -1
239 0 47 42 54 45 4620
240 0 48 98 81 30 -1
241 0 48 98 79 30 -1
242 0 48 97 75 27 -1
243 0 48 94 78 29 -1
244 0 48 97 76 28 -1
245 0 49 64 49 44 4965
246 0 49 64 50 41 -1
247 0 49 61 51 37 2142
248 0 49 58 47 36 -1
249 0 49 56 48 35 1936
250 0 50 48 81 40 -1
251 0 50 46 80 38 -1
252 0 50 47 80 39 -1
253 0 50 51 79 42 -1
254 0 50 54 76 43 -1
255 0 51 29 60 28 -1
256 0 51 28 60 32 -1
257 0 51 30 62 30 -1
258 0 51 27 59 32 -1
259 0 51 24 61 33 -1
260 0 52 62 44 51 1414
261 0 52 63 44 55 4629
262 0 52 60 41 56 1530
263 0 52 60 40 55 1742
264 0 52 58 41 53 4400
265 0 53 77 70 70 -1
266 0 53 78 72 70 -1
267 0 53 77 70 74 1634
268 0 53 76 73 73 -1
269 0 53 76 70 73 -1
270 0 54 55 45 52 4884
271 0 54 57 45 50 -1
272 0 54 60 46 51 1825
273 0 54 60 44 52 4865
274 0 54 59 48 54 5084
275 0 55 91 67 34 -1
276 0 55 90 65 32 -1
277 0 55 89 65 30 -1
278 0 55 87 62 29 -1
279 0 55 89 64 25 -1
280 0 56 64 42 44 2343
281 0 56 63 45 45 5142
282 0 56 60 46 41 2140
283 0 56 64 46 43 5143
284 0 56 62 45 39 -1
285 0 57 56 41 39 2148
286 0 57 54 43 42 1810
287 0 57 52 41 40 2026
288 0 57 50 38 43 5338
289 0 57 51 40 41 -1
290 0 58 37 38 47 -1
291 0 58 41 38 44 1281
292 0 58 41 35 42 -1
293 0 58 42 38 42 4477
294 0 58 40 41 41 5635
295 0 59 1 59 15 -1
296 0 59 3 57 13 5708
297 0 59 3 62 14 -1
298 0 59 6 59 12 5707
299 0 59 4 57 9 -1
300 0 60 40 48 57 1475
301 0 60 40 46 56 -1
302 0 60 43 49 54 4259
303 0 60 44 47 50 4329
304 0 60 42 45 50 -1
305 0 61 83 87 22 -1
306 0 61 81 88 25 -1
307 0 61 84 91 28 -1
308 0 61 83 92 28 -1
309 0 61 79 94 28 4776
310 0 62 38 96 70 -1
311 0 62 38 99 69 5800
312 0 62 38 1 69 5801
313 0 62 37 3 72 -1
314 0 62 34 3 69 -1
315 0 63 63 38 38 -1
316 0 63 61 37 40 4828
317 0 63 61 36 40 4745
318 0 63 61 39 38 2410
319 0 63 62 38 33 2288
320 0 64 68 52 12 -1
321 0 64 70 52 11 -1
322 0 64 71 55 12 -1
323 0 64 73 56 9 -1
324 0 64 71 60 8 -1
325 0 65 12 87 49 -1
326 0 65 11 87 46 -1
327 0 65 11 89 43 -1
328 0 65 9 87 44 -1
329 0 65 10 85 43 -1
330 0 66 55 43 52 2459
331 0 66 51 42 55 1488
332 0 66 48 41 59 2116
333 0 66 45 42 59 5807
334 0 66 45 39 56 -1
335 0 67 52 36 44 -1
336 0 67 54 33 43 5049
337 0 67 53 34 42 1262
338 0 67 56 34 41 1934
339 0 67 55 37 41 5053
340 0 68 32 37 15 -1
341 0 68 31 35 13 -1
342 0 68 31 37 14 -1
343 0 68 32 33 15 -1
344 0 68 32 28 16 -1
345 0 69 47 2 59 -1
346 0 69 50 2 63 -1
347 0 69 50 2 64 -1
348 0 69 50 97 64 -1
349 0 69 52 96 65 1610
350 0 70 66 42 58 1770
351 0 70 65 42 59 4633
352 0 70 70 43 58 1724
353 0 70 66 40 59 5731
354 0 70 64 36 60 1955
355 0 71 59 36 49 4906
356 0 71 57 39 50 1486
357 0 71 60 43 51 5164
358 0 71 60 46 54 1826
359 0 71 61 47 55 5856
360 0 72 61 56 92 -1
361 0 72 66 55 91 -1
362 0 72 68 53 95 -1
363 0 72 66 57 96 -1
364 0 72 64 61 96 -1
365 0 73 49 50 38 4308
366 0 73 48 47 41 -1
367 0 73 49 44 39 1655
368 0 73 48 44 37 4344
369 0 73 47 46 35 -1
370 0 74 97 97 5 -1
371 0 74 96 97 7 -1
372 0 74 96 1 4 -1
373 0 74 94 2 3 -1
374 0 74 93 3 6 -1
375 0 75 51 36 25 -1
376 0 75 50 34 29 -1
377 0 75 49 38 28 5432
378 0 75 51 40 27 -1
379 0 75 52 38 27 1467
380 0 76 86 55 71 -1
381 0 76 85 55 72 -1
382 0 76 88 56 75 -1
383 0 76 89 55 75 -1
384 0 76 88 57 79 -1
385 0 77 43 15 13 -1
386 0 77 40 15 12 -1
387 0 77 42 18 14 -1
388 0 77 42 22 14 -1
389 0 77 40 25 14 -1
390 0 78 58 29 42 1874
391 0 78 61 31 41 1873
392 0 78 57 31 42 5583
393 0 78 56 33 40 5231
394 0 78 55 31 42 2293
395 0 79 52 43 55 -1
396 0 79 51 41 58 -1
397 0 79 49 45 57 2079
398 0 79 51 47 59 5452
399 0 79 52 51 57 4261
400 0 80 39 55 40 -1
401 0 80 39 51 40 5033
402 0 80 39 47 39 4524
403 0 80 43 47 41 5618
404 0 80 43 48 46 5073
405 0 81 61 87 90 -1
406 0 81 60 85 87 -1
407 0 81 65 85 87 5758
408 0 81 60 86 88 -1
409 0 81 58 83 85 -1
410 0 82 44 99 11 -1
411 0 82 44 99 14 -1
412 0 82 47 3 13 -1
413 0 82 45 6 13 -1
414 0 82 42 3 11 -1
415 0 83 53 35 33 5375
416 0 83 55 35 35 1444
417 0 83 59 35 38 4827
418 0 83 56 36 39 4388
419 0 83 57 33 39 4742
420 0 84 92 66 12 -1
421 0 84 95 68 10 -1
422 0 84 99 68 11 -1
423 0 84 1 68 14 -1
424 0 84 3 66 16 -1
425 0 85 4 83 77 -1
426 0 85 6 86 78 -1
427 0 85 9 86 82 -1
428 0 85 7 88 83 -1
429 0 85 9 85 80 -1
430 0 86 55 31 62 1681
431 0 86 50 30 61 -1
432 0 86 51 29 63 1682
433 0 86 54 31 62 -1
434 0 86 55 30 57 -1
435 0 87 37 85 72 -1
436 0 87 36 82 69 -1
437 0 87 33 82 68 -1
438 0 87 30 86 68 -1
439 0 87 33 89 69 -1
440 0 88 28 91 76 -1
441 0 88 28 89 78 -1
442 0 88 25 90 76 -1
443 0 88 21 91 76 -1
444 0 88 19 93 77 -1
445 0 89 42 35 37 2474
446 0 89 39 38 39 1282
447 0 89 41 35 37 4476
448 0 89 39 35 35 4842
449 0 89 43 36 37 -1
450 0 90 24 54 67 -1
451 0 90 22 58 65 -1
452 0 90 18 60 65 4381
453 0 90 21 59 65 -1
454 0 90 25 60 64 -1
455 0 91 3 88 67 2387
456 0 91 7 88 65 2388
457 0 91 8 84 67 1991
458 0 91 10 88 67 1990
459 0 91 11 88 63 -1
460 0 92 36 0 46 -1
461 0 92 33 98 47 -1
462 0 92 32 2 47 5246
463 0 92 33 5 50 -1
464 0 92 34 5 55 5250
465 0 93 77 64 37 2301
466 0 93 73 66 39 -1
467 0 93 71 65 43 -1
468 0 93 68 67 40 -1
469 0 93 66 66 36 -1
470 0 94 97 73 0 5152
471 0 94 97 74 3 -1
472 0 94 0 74 6 -1
473 0 94 2 78 6 -1
474 0 94 2 79 11 -1
475 0 95 45 41 32 5431
476 0 95 48 42 34 4667
477 0 95 48 43 37 2399
478 0 95 45 43 36 -1
479 0 95 42 39 37 5017
480 0 96 56 47 53 5579
481 0 96 52 48 54 1341
482 0 96 50 49 50 5003
483 0 96 49 51 53 5448
484 0 96 52 49 56 1351
485 0 97 62 49 36 -1
486 0 97 60 51 34 -1
487 0 97 61 51 29 -1
488 0 97 62 48 30 -1
489 0 97 63 48 26 -1
490 0 98 84 51 3 -1
491 0 98 84 50 8 -1
492 0 98 81 49 5 -1
493 0 98 81 47 8 -1
494 0 98 82 43 6 -1
495 0 99 62 21 34 5469
496 0 99 58 22 35 1765
497 0 99 58 17 35 1777
498 0 99 56 14 33 -1
499 0 99 55 15 33 5474
500 0 100 64 36 47 5718
501 0 100 66 39 45 -1
502 0 100 64 38 48 2341
503 0 100 61 40 48 4864
504 0 100 61 42 48 -1
505 0 101 54 29 57 2030
506 0 101 52 30 54 5438
507 0 101 53 33 56 4659
508 0 101 49 35 55 2179
509 0 101 50 32 52 2206
510 0 102 56 44 30 -1
511 0 102 56 39 30 4514
512 0 102 60 40 30 5962
513 0 102 58 39 27 1464
514 0 102 57 39 30 4393
515 0 103 90 1 84 1305
516 0 103 93 3 84 -1
517 0 103 94 4 79 -1
518 0 103 90 6 77 1308
519 0 103 90 6 80 -1
520 0 104 65 48 45 -1
521 0 104 64 48 43 4969
522 0 104 62 51 45 1432
523 0 104 63 54 42 -1
524 0 104 65 50 43 4725
525 0 105 65 34 48 2447
526 0 105 67 37 49 1864
527 0 105 69 35 46 -1
528 0 105 69 39 48 5215
529 0 105 67 38 46 5494
530 0 106 52 31 53 5095
531 0 106 54 31 49 5093
532 0 106 50 33 51 4847
533 0 106 50 35 50 -1
534 0 106 47 39 51 1885
535 0 107 97 52 36 -1
536 0 107 94 56 37 2245
537 0 107 95 54 36 -1
538 0 107 99 53 39 -1
539 0 107 97 49 39 -1
540 0 108 59 39 49 5399
541 0 108 59 40 45 4646
542 0 108 59 41 45 2342
543 0 108 59 41 49 5401
544 0 108 62 41 46 5924
545 0 109 62 38 37 2189
546 0 109 61 39 35 4510
547 0 109 64 42 38 5199
548 0 109 63 43 34 1852
549 0 109 61 45 34 4612
550 0 110 70 58 36 -1
551 0 110 65 59 35 -1
552 0 110 64 55 35 -1
553 0 110 60 56 35 4981
554 0 110 62 59 34 -1
555 0 111 62 42 38 4811
556 0 111 62 41 37 2285
557 0 111 65 42 38 -1
558 0 111 61 43 37 5904
559 0 111 58 42 41 -1
560 0 112 62 9 68 -1
561 0 112 64 5 67 -1
562 0 112 67 2 65 -1
563 0 112 66 97 66 -1
564 0 112 66 95 64 -1
565 0 113 71 10 30 -1
566 0 113 72 8 28 -1
567 0 113 75 10 28 -1
568 0 113 72 13 31 -1
569 0 113 72 14 31 -1
570 0 114 55 34 43 2294
571 0 114 51 35 41 1589
572 0 114 54 38 44 -1
573 0 114 55 33 44 2494
574 0 114 51 32 47 1311
575 0 115 56 49 38 -1
576 0 115 56 48 42 -1
577 0 115 56 49 44 5994
578 0 115 55 52 44 -1
579 0 115 52 50 44 -1
580 0 116 54 48 42 -1
581 0 116 52 44 44 2296
582 0 116 50 47 42 5771
583 0 116 46 44 41 4668
584 0 116 42 45 41 4342
585 0 117 46 38 48 1949
586 0 117 49 37 49 1780
587 0 117 52 36 47 2209
588 0 117 56 36 50 5092
589 0 117 56 38 51 -1
590 0 118 54 51 52 5859
591 0 118 56 52 55 5269
592 0 118 56 50 53 4883
593 0 118 59 49 52 4601
594 0 118 58 48 52 -1
595 0 119 3 50 96 -1
596 0 119 99 51 95 -1
597 0 119 98 52 93 4564
598 0 119 94 50 93 -1
599 0 119 91 46 92 -1
600 0 120 65 47 40 -1
601 0 120 69 48 39 -1
602 0 120 70 47 43 -1
603 0 120 66 46 44 5505
604 0 120 68 47 41 -1
605 0 121 37 47 44 4337
606 0 121 36 47 44 -1
607 0 121 34 44 42 -1
608 0 121 36 44 42 -1
609 0 121 35 42 38 1302
610 0 122 43 42 53 4890
611 0 122 45 44 50 2259
612 0 122 42 46 50 -1
613 0 122 39 46 48 5070
614 0 122 37 44 44 -1
615 0 123 62 5 97 -1
616 0 123 62 6 97 -1
617 0 123 61 8 98 -1
618 0 123 64 11 96 -1
619 0 123 65 12 93 -1
620 0 124 58 24 44 2102
621 0 124 56 26 45 2174
622 0 124 59 25 47 4471
623 0 124 62 23 47 -1
624 0 124 61 20 50 -1
625 0 125 49 43 37 4664
626 0 125 49 39 36 4690
627 0 125 50 35 33 5376
628 0 125 51 39 35 5357
629 0 125 51 36 39 1803
630 0 126 49 19 74 -1
631 0 126 51 17 72 -1
632 0 126 51 18 74 -1
633 0 126 53 21 72 -1
634 0 126 49 21 73 -1
635 0 127 0 55 60 -1
636 0 127 97 52 57 -1
637 0 127 96 49 59 -1
638 0 127 99 48 60 -1
639 0 127 1 46 64 -1
640 0 128 55 45 33 -1
641 0 128 55 44 35 5252
642 0 128 54 47 37 2138
643 0 128 55 50 38 -1
644 0 128 58 51 42 -1
645 0 129 47 44 38 4346
646 0 129 43 46 36 4666
647 0 129 40 50 37 4528
648 0 129 43 46 38 5627
649 0 129 45 45 41 4343
650 0 130 14 36 40 -1
651 0 130 16 36 43 1646
652 0 130 19 35 41 1288
653 0 130 20 38 43 -1
654 0 130 23 38 43 -1
655 0 131 63 31 39 -1
656 0 131 61 35 38 4384
657 0 131 60 33 41 -1
658 0 131 62 34 42 -1
659 0 131 61 32 43 4741
660 0 132 36 61 46 -1
661 0 132 37 59 50 -1
662 0 132 39 55 52 5557
663 0 132 43 54 53 2362
664 0 132 40 53 52 -1
665 0 133 46 51 53 1500
666 0 133 47 48 57 -1
667 0 133 46 51 60 5677
668 0 133 46 55 60 -1
669 0 133 42 53 62 -1
670 0 134 49 29 43 1312
671 0 134 47 31 39 -1
672 0 134 49 35 38 5337
673 0 134 51 33 40 1804
674 0 134 47 35 40 1587
675 0 135 54 49 45 5640
676 0 135 51 45 44 4651
677 0 135 53 46 46 2299
678 0 135 51 45 47 2135
679 0 135 54 47 46 5578
680 0 136 95 43 39 -1
681 0 136 94 44 34 -1
682 0 136 94 43 30 -1
683 0 136 93 45 33 -1
684 0 136 96 45 32 -1
685 0 137 40 44 26 4556
686 0 137 40 39 25 -1
687 0 137 43 38 29 5260
688 0 137 46 39 30 2269
689 0 137 44 41 32 1929
690 0 138 63 48 50 -1
691 0 138 63 46 48 1410
692 0 138 60 45 47 4860
693 0 138 56 47 46 -1
694 0 138 55 51 48 2400
695 0 139 54 41 46 -1
696 0 139 49 42 47 -1
697 0 139 50 41 52 4324
698 0 139 52 42 49 -1
699 0 139 51 42 50 2134
700 0 140 45 55 46 5841
701 0 140 46 56 49 -1
702 0 140 44 57 51 2244
703 0 140 45 55 51 5672
704 0 140 42 59 51 -1
705 0 141 56 28 40 4959
706 0 141 55 30 38 -1
707 0 141 56 31 43 -1
708 0 141 55 28 43 1314
709 0 141 53 30 40 1264
710 0 142 52 43 47 2325
711 0 142 49 45 45 5786
712 0 142 49 42 45 4457
713 0 142 50 46 42 -1
714 0 142 50 44 38 4735
715 0 143 64 86 26 -1
716 0 143 61 85 25 -1
717 0 143 61 87 25 -1
718 0 143 66 87 26 -1
719 0 143 68 84 23 -1
720 0 144 39 62 15 -1
721 0 144 39 64 13 -1
722 0 144 35 61 13 -1
723 0 144 35 66 14 -1
724 0 144 38 66 15 -1
725 0 145 42 31 43 2471
726 0 145 44 32 43 -1
727 0 145 49 31 44 4874
728 0 145 48 32 41 1586
729 0 145 44 31 44 4480
730 0 146 0 88 64 -1
731 0 146 1 89 61 -1
732 0 146 4 92 62 -1
733 0 146 4 91 60 -1
734 0 146 5 92 65 -1
735 0 147 52 57 42 5950
736 0 147 52 59 41 1369
737 0 147 52 61 44 5849
738 0 147 54 63 46 -1
739 0 147 53 65 47 -1
740 0 148 33 34 96 -1
741 0 148 32 31 96 -1
742 0 148 36 33 97 -1
743 0 148 37 34 0 2263
744 0 148 41 33 2 -1
745 0 149 78 35 99 -1
746 0 149 79 31 1 -1
747 0 149 75 32 98 -1
748 0 149 75 33 3 -1
749 0 149 78 35 6 -1
750 0 150 49 74 79 -1
751 0 150 48 75 79 -1
752 0 150 49 75 84 -1
753 0 150 47 74 84 -1
754 0 150 46 70 81 -1
755 0 151 15 82 92 5873
756 0 151 14 78 89 5870
757 0 151 12 75 90 5871
758 0 151 13 73 91 -1
759 0 151 12 78 91 -1
760 0 152 13 66 96 -1
761 0 152 16 65 93 -1
762 0 152 20 66 90 -1
763 0 152 17 63 91 -1
764 0 152 14 65 93 -1
765 0 153 93 13 52 -1
766 0 153 90 10 55 -1
767 0 153 93 10 57 -1
768 0 153 97 13 58 -1
769 0 153 96 10 60 -1
770 0 154 70 16 13 -1
771 0 154 70 16 16 -1
772 0 154 74 18 15 -1
773 0 154 75 21 16 -1
774 0 154 72 20 14 -1
775 0 155 50 39 35 -1
776 0 155 50 38 40 -1
777 0 155 50 41 43 2027
778 0 155 51 44 43 4353
779 0 155 51 43 46 2151
780 0 156 7 88 59 -1
781 0 156 8 88 58 -1
782 0 156 9 92 61 -1
783 0 156 5 92 61 -1
784 0 156 8 91 63 2385
785 0 157 38 68 37 -1
786 0 157 40 65 36 -1
787 0 157 41 63 33 -1
788 0 157 45 63 32 5982
789 0 157 45 59 34 4731
790 0 158 1 55 10 -1
791 0 158 98 58 11 -1
792 0 158 99 55 10 -1
793 0 158 98 50 9 -1
794 0 158 95 48 11 -1
795 0 159 58 37 37 4511
796 0 159 61 38 41 -1
797 0 159 57 39 42 1752
798 0 159 54 39 38 5130
799 0 159 53 38 35 5359
800 0 160 52 40 43 2440
801 0 160 48 39 43 -1
802 0 160 47 43 44 5457
803 0 160 48 44 43 -1
804 0 160 47 42 42 1658
805 0 161 40 29 73 -1
806 0 161 41 30 75 -1
807 0 161 44 31 76 -1
808 0 161 43 29 74 -1
809 0 161 43 30 77 -1
810 0 162 59 24 45 2101
811 0 162 60 24 44 1871
812 0 162 60 25 48 4470
813 0 162 56 26 47 -1
814 0 162 57 22 45 -1
815 0 163 62 99 42 -1
816 0 163 58 0 45 4580
817 0 163 55 99 46 -1
818 0 163 54 0 45 -1
819 0 163 52 4 46 4986
820 0 164 77 71 57 -1
821 0 164 79 68 58 -1
822 0 164 75 69 56 -1
823 0 164 72 68 55 -1
824 0 164 71 72 57 -1
825 0 165 49 55 43 5560
826 0 165 45 52 44 4364
827 0 165 43 50 43 4363
828 0 165 46 52 43 1975
829 0 165 50 51 44 -1
830 0 166 72 60 65 -1
831 0 166 70 56 64 -1
832 0 166 71 54 61 5525
833 0 166 68 55 62 -1
834 0 166 65 56 59 5899
835 0 167 54 33 46 1704
836 0 167 51 35 49 2455
837 0 167 50 39 48 1947
838 0 167 53 41 49 5205
839 0 167 51 39 50 1760
840 0 168 43 58 39 1806
841 0 168 42 59 34 -1
842 0 168 44 56 31 -1
843 0 168 45 57 32 5824
844 0 168 44 53 32 -1
845 0 169 50 33 42 -1
846 0 169 50 32 39 -1
847 0 169 47 30 42 -1
848 0 169 51 33 41 4875
849 0 169 50 33 44 5026
850 0 170 65 6 80 -1
851 0 170 66 7 84 -1
852 0 170 66 10 80 -1
853 0 170 68 6 80 -1
854 0 170 66 4 81 -1
855 0 171 96 89 18 -1
856 0 171 95 88 15 -1
857 0 171 98 86 15 -1
858 0 171 0 89 14 -1
859 0 171 96 92 15 -1
860 0 172 44 51 43 -1
861 0 172 42 47 44 4366
862 0 172 46 46 47 5155
863 0 172 44 46 51 4517
864 0 172 42 43 53 -1
865 0 173 52 55 81 2454
866 0 173 56 55 83 2453
867 0 173 54 55 81 -1
868 0 173 57 54 85 2452
869 0 173 59 56 83 -1
870 0 174 57 47 59 4321
871 0 174 57 51 58 -1
872 0 174 59 48 56 -1
873 0 174 58 44 57 1827
874 0 174 59 41 53 -1
875 0 175 69 35 47 2428
876 0 175 67 34 50 5914
877 0 175 71 34 52 -1
878 0 175 75 37 52 -1
879 0 175 79 37 55 -1
880 0 176 68 11 56 -1
881 0 176 69 13 55 2098
882 0 176 69 18 56 -1
883 0 176 68 17 61 -1
884 0 176 67 15 60 -1
885 0 177 42 38 56 -1
886 0 177 44 39 59 2076
887 0 177 42 40 55 5806
888 0 177 42 42 58 2202
889 0 177 43 42 59 -1
890 0 178 59 36 48 5589
891 0 178 58 34 48 5588
892 0 178 57 39 49 4766
893 0 178 58 37 50 4289
894 0 178 59 37 46 1750
895 0 179 20 48 87 -1
896 0 179 21 44 84 -1
897 0 179 25 46 85 5353
898 0 179 26 44 81 -1
899 0 179 23 43 77 -1
900 0 180 66 64 49 -1
901 0 180 69 65 45 1527
902 0 180 68 66 43 -1
903 0 180 65 65 39 1529
904 0 180 65 62 39 -1
905 0 181 56 3 74 -1
906 0 181 58 6 76 -1
907 0 181 63 7 77 -1
908 0 181 64 3 76 -1
909 0 181 66 0 79 -1
910 0 182 60 63 54 -1
911 0 182 59 63 54 -1
912 0 182 62 63 56 5418
913 0 182 60 63 58 5416
914 0 182 60 64 56 -1
915 0 183 48 28 86 -1
916 0 183 49 31 86 -1
917 0 183 48 35 83 -1
918 0 183 48 33 80 -1
919 0 183 50 37 79 -1
920 0 184 58 45 47 5140
921 0 184 59 45 48 5404
922 0 184 61 43 49 1423
923 0 184 60 40 48 4484
924 0 184 59 39 45 2313
925 0 185 44 44 29 4433
926 0 185 47 41 31 1615
927 0 185 46 43 29 -1
928 0 185 47 42 29 5259
929 0 185 48 43 32 -1
930 0 186 32 54 46 1835
931 0 186 32 57 49 -1
932 0 186 37 56 50 2089
933 0 186 41 54 48 5158
934 0 186 43 55 52 2087
935 0 187 61 46 54 -1
936 0 187 64 49 54 -1
937 0 187 60 51 54 5857
938 0 187 57 52 56 -1
939 0 187 57 54 55 1884
940 0 188 63 20 50 -1
941 0 188 61 23 48 1499
942 0 188 59 22 46 1359
943 0 188 59 25 49 -1
944 0 188 63 26 51 -1
945 0 189 42 58 40 5563
946 0 189 45 56 39 4545
947 0 189 48 59 41 5941
948 0 189 49 59 44 4871
949 0 189 52 60 47 2168
950 0 190 41 32 40 -1
951 0 190 43 35 42 5631
952 0 190 40 39 41 -1
953 0 190 43 41 39 -1
954 0 190 44 41 40 -1
955 0 191 72 52 47 1687
956 0 191 73 52 48 -1
957 0 191 77 53 50 -1
958 0 191 74 57 50 1569
959 0 191 74 56 50 -1
960 0 192 69 31 31 -1
961 0 192 67 33 28 5319
962 0 192 65 36 29 -1
963 0 192 63 37 27 4391
964 0 192 64 33 30 5311
965 0 193 52 52 37 5819
966 0 193 52 50 40 1559
967 0 193 54 51 40 1558
968 0 193 55 51 37 1798
969 0 193 53 50 34 -1
970 0 194 43 30 54 5992
971 0 194 44 31 51 -1
972 0 194 47 35 50 -1
973 0 194 47 38 47 1781
974 0 194 46 40 47 1948
975 0 195 18 71 64 -1
976 0 195 15 69 66 -1
977 0 195 16 66 64 -1
978 0 195 17 67 69 -1
979 0 195 18 62 69 1437
980 0 196 40 41 58 -1
981 0 196 40 40 57 -1
982 0 196 40 42 60 -1
983 0 196 44 41 60 2075
984 0 196 45 43 57 -1
985 0 197 41 42 50 4340
986 0 197 44 45 49 -1
987 0 197 42 46 49 5344
988 0 197 38 46 46 -1
989 0 197 37 48 42 -1
990 0 198 1 52 91 1583
991 0 198 2 52 92 -1
992 0 198 99 55 95 -1
993 0 198 1 53 98 -1
994 0 198 4 55 98 -1
995 0 199 52 39 37 5358
996 0 199 56 38 36 5478
997 0 199 55 38 41 4790
998 0 199 55 39 45 1759
999 0 199 54 40 44 1933
1000 0 200 52 49 59 5453
1001 0 200 50 46 57 -1
1002 0 200 47 47 56 -1
1003 0 200 47 45 52 4893
1004 0 200 48 47 49 -1
1005 0 201 56 42 54 5161
1006 0 201 56 43 57 -1
1007 0 201 56 43 53 5681
1008 0 201 58 46 51 1829
1009 0 201 58 47 49 -1
1010 0 202 12 51 97 1580
1011 0 202 11 52 96 -1
1012 0 202 7 54 96 1581
1013 0 202 8 53 0 -1
1014 0 202 11 53 1 -1
1015 0 203 36 38 40 1303
1016 0 203 36 42 37 5018
1017 0 203 35 45 39 2372
1018 0 203 36 46 39 4368
1019 0 203 38 45 35 -1
1020 0 204 45 31 53 -1
1021 0 204 50 31 54 5096
1022 0 204 51 28 56 2379
1023 0 204 56 29 57 5434
1024 0 204 55 26 54 2376
1025 0 205 40 52 43 5044
1026 0 205 37 51 44 4951
1027 0 205 34 53 41 4952
1028 0 205 32 54 39 1839
1029 0 205 36 57 38 1317
1030 0 206 37 91 93 2345
1031 0 206 37 93 93 2346
1032 0 206 42 93 93 2349
1033 0 206 42 94 88 -1
1034 0 206 39 93 85 -1
1035 0 207 53 32 46 5738
1036 0 207 54 34 48 5050
1037 0 207 58 34 49 4763
1038 0 207 57 33 53 -1
1039 0 207 55 33 55 4707
1040 0 208 54 0 57 5975
1041 0 208 54 1 53 -1
1042 0 208 56 3 51 4582
1043 0 208 53 0 52 -1
1044 0 208 54 99 56 -1
1045 0 209 39 17 38 -1
1046 0 209 40 15 35 -1
1047 0 209 38 12 33 -1
1048 0 209 33 11 34 -1
1049 0 209 35 9 31 -1
1050 0 210 65 42 55 5109
1051 0 210 64 47 55 4721
1052 0 210 68 49 53 5897
1053 0 210 69 50 49 4968
1054 0 210 68 51 49 -1
1055 0 211 65 37 38 -1
1056 0 211 63 36 38 5927
1057 0 211 65 33 38 -1
1058 0 211 63 31 42 -1
1059 0 211 64 26 41 -1
1060 0 212 54 83 44 -1
1061 0 212 50 82 47 -1
1062 0 212 49 80 44 -1
1063 0 212 52 81 48 -1
1064 0 212 50 77 49 5500
1065 0 213 51 48 37 4688
1066 0 213 51 53 37 4771
1067 0 213 51 53 38 4736
1068 0 213 48 57 37 5823
1069 0 213 47 58 40 5694
1070 0 214 57 58 54 -1
1071 0 214 57 61 51 2416
1072 0 214 56 58 51 2415
1073 0 214 55 58 48 -1
1074 0 214 54 59 45 5948
1075 0 215 65 43 55 5728
1076 0 215 61 40 55 -1
1077 0 215 62 39 54 5105
1078 0 215 66 37 52 5912
1079 0 215 66 37 55 5732
1080 0 216 47 80 83 -1
1081 0 216 49 81 84 -1
1082 0 216 45 83 85 -1
1083 0 216 46 84 80 -1
1084 0 216 42 84 81 -1
1085 0 217 51 51 35 4737
1086 0 217 50 50 35 5624
1087 0 217 47 49 34 1904
1088 0 217 43 49 34 -1
1089 0 217 43 51 36 2316
1090 0 218 42 42 53 1477
1091 0 218 40 45 53 -1
1092 0 218 36 44 55 -1
1093 0 218 38 41 56 -1
1094 0 218 37 44 56 -1
1095 0 219 59 58 51 -1
1096 0 219 56 57 49 4834
1097 0 219 52 60 48 -1
1098 0 219 49 59 52 4835
1099 0 219 52 63 53 2481
1100 0 220 50 48 49 1952
1101 0 220 51 46 46 2232
1102 0 220 50 46 50 4801
1103 0 220 48 49 53 4258
1104 0 220 47 48 56 -1
1105 0 221 60 38 37 5480
1106 0 221 59 40 36 1440
1107 0 221 57 41 35 -1
1108 0 221 58 46 36 -1
1109 0 221 57 48 35 2219
1110 0 222 73 61 54 1565
1111 0 222 70 61 57 5414
1112 0 222 71 58 56 -1
1113 0 222 70 58 55 -1
1114 0 222 72 57 51 1688
1115 0 223 47 54 51 5225
1116 0 223 46 50 54 5674
1117 0 223 43 52 51 4808
1118 0 223 45 50 51 5449
1119 0 223 47 47 52 1342
1120 0 224 46 36 35 1449
1121 0 224 46 37 31 4840
1122 0 224 50 37 30 4946
1123 0 224 48 39 30 1927
1124 0 224 51 42 30 4465
1125 0 225 67 98 29 -1
1126 0 225 69 1 30 -1
1127 0 225 73 3 32 -1
1128 0 225 76 1 32 -1
1129 0 225 80 2 30 -1
1130 0 226 79 75 6 -1
1131 0 226 80 78 6 -1
1132 0 226 81 76 6 -1
1133 0 226 82 80 4 -1
1134 0 226 82 83 2 -1
1135 0 227 69 15 4 5061
1136 0 227 73 17 2 1373
1137 0 227 74 13 3 -1
1138 0 227 76 15 99 -1
1139 0 227 79 18 2 -1
1140 0 228 95 62 90 -1
1141 0 228 98 61 90 -1
1142 0 228 98 57 90 -1
1143 0 228 0 57 93 1626
1144 0 228 2 53 91 -1
1145 0 229 57 29 39 2171
1146 0 229 60 27 41 1872
1147 0 229 61 26 41 -1
1148 0 229 62 31 41 5658
1149 0 229 62 28 42 5595
1150 0 230 63 46 51 -1
1151 0 230 63 42 52 1413
1152 0 230 64 46 54 -1
1153 0 230 65 42 54 5087
1154 0 230 66 41 57 -1
1155 0 231 75 36 93 -1
1156 0 231 78 38 95 -1
1157 0 231 80 39 93 -1
1158 0 231 81 38 94 1690
1159 0 231 83 40 98 -1
1160 0 232 57 11 35 -1
1161 0 232 56 10 35 -1
1162 0 232 53 9 38 -1
1163 0 232 54 8 34 -1
1164 0 232 53 7 33 -1
1165 0 233 49 41 30 5261
1166 0 233 49 42 33 1616
1167 0 233 49 44 33 2123
1168 0 233 47 43 35 5428
1169 0 233 45 42 35 5218
1170 0 234 52 54 42 4872
1171 0 234 48 53 44 5788
1172 0 234 48 56 42 1452
1173 0 234 51 55 38 -1
1174 0 234 51 53 42 -1
1175 0 235 41 43 34 4552
1176 0 235 41 41 35 4526
1177 0 235 40 43 36 4525
1178 0 235 39 39 33 -1
1179 0 235 41 35 32 -1
1180 0 236 57 72 41 -1
1181 0 236 58 74 43 -1
1182 0 236 55 75 39 -1
1183 0 236 52 75 37 2180
1184 0 236 52 73 34 -1
1185 0 237 62 27 45 1357
1186 0 237 59 26 41 5582
1187 0 237 62 26 45 4468
1188 0 237 62 27 47 -1
1189 0 237 59 29 46 5661
1190 0 238 8 26 16 -1
1191 0 238 4 26 17 -1
1192 0 238 2 25 14 -1
1193 0 238 98 25 12 -1
1194 0 238 98 25 9 -1
1195 0 239 64 42 29 -1
1196 0 239 63 40 32 -1
1197 0 239 63 39 33 5196
1198 0 239 62 35 35 5477
1199 0 239 63 33 36 -1
1200 0 240 22 88 28 -1
1201 0 240 20 88 31 -1
1202 0 240 17 90 34 -1
1203 0 240 14 88 33 -1
1204 0 240 11 84 34 -1
1205 0 241 45 67 43 -1
1206 0 241 49 64 44 2167
1207 0 241 53 65 41 2166
1208 0 241 51 64 40 2165
1209 0 241 49 64 41 5942
1210 0 242 46 43 41 5483
1211 0 242 42 42 40 5485
1212 0 242 42 47 41 4255
1213 0 242 45 45 40 -1
1214 0 242 42 42 37 -1
1215 0 243 55 46 32 -1
1216 0 243 52 46 29 -1
1217 0 243 53 41 28 4512
1218 0 243 55 39 30 5652
1219 0 243 53 37 26 1563
1220 0 244 12 46 39 1571
1221 0 244 11 46 42 1570
1222 0 244 12 43 40 -1
1223 0 244 9 43 37 -1
1224 0 244 7 46 34 -1
1225 0 245 57 23 40 5602
1226 0 245 58 22 38 1482
1227 0 245 55 19 38 1778
1228 0 245 55 21 37 -1
1229 0 245 58 21 40 -1
1230 0 246 57 35 46 4795
1231 0 246 57 35 43 5054
1232 0 246 57 35 48 5591
1233 0 246 60 31 49 4473
1234 0 246 62 33 51 -1
1235 0 247 54 43 51 5208
1236 0 247 53 40 49 4850
1237 0 247 53 40 46 1812
1238 0 247 52 43 44 1811
1239 0 247 49 44 47 4760
1240 0 248 42 38 54 1455
1241 0 248 38 37 53 1963
1242 0 248 40 38 55 2210
1243 0 248 41 37 60 -1
1244 0 248 43 34 60 -1
1245 0 249 90 44 0 -1
1246 0 249 89 39 0 -1
1247 0 249 88 39 4 -1
1248 0 249 88 37 1 -1
1249 0 249 90 37 5 -1
1250 1 250 9 79 57 93
1251 1 250 8 79 57 -1
1252 1 250 8 76 54 -1
1253 1 250 4 79 54 -1
1254 1 250 1 79 51 -1
1255 1 251 64 25 34 2684
1256 1 251 66 25 30 2783
1257 1 251 62 28 31 2786
1258 1 251 61 27 35 2686
1259 1 251 64 30 38 3175
1260 1 252 56 32 44 -1
1261 1 252 53 35 44 2912
1262 1 252 54 35 41 337
1263 1 252 56 32 39 -1
1264 1 252 54 30 40 709
1265 1 253 99 64 40 -1
1266 1 253 97 63 38 -1
1267 1 253 95 64 40 -1
1268 1 253 97 68 39 -1
1269 1 253 1 65 40 -1
1270 1 254 6 23 84 -1
1271 1 254 5 19 86 3538
1272 1 254 3 16 87 -1
1273 1 254 4 13 84 -1
1274 1 254 1 14 82 -1
1275 1 255 14 6 24 -1
1276 1 255 18 7 25 -1
1277 1 255 18 4 25 -1
1278 1 255 19 1 24 -1
1279 1 255 18 4 26 -1
1280 1 256 39 41 42 4140
1281 1 256 40 39 44 291
1282 1 256 38 39 40 446
1283 1 256 39 36 38 -1
1284 1 256 37 35 39 4142
1285 1 257 17 34 39 -1
1286 1 257 19 34 43 -1
1287 1 257 19 35 43 -1
1288 1 257 20 35 41 652
1289 1 257 23 36 39 -1
1290 1 258 95 86 58 -1
1291 1 258 95 86 56 -1
1292 1 258 97 89 58 -1
1293 1 258 96 86 56 -1
1294 1 258 93 88 56 -1
1295 1 259 48 45 56 3958
1296 1 259 49 47 59 2967
1297 1 259 47 47 58 3961
1298 1 259 45 46 59 3957
1299 1 259 47 49 61 -1
1300 1 260 36 45 38 -1
1301 1 260 37 42 40 -1
1302 1 260 34 41 39 609
1303 1 260 36 37 39 1015
1304 1 260 37 33 38 -1
1305 1 261 90 1 83 515
1306 1 261 90 1 78 -1
1307 1 261 93 4 78 -1
1308 1 261 90 7 77 518
1309 1 261 86 8 79 -1
1310 1 262 49 33 48 -1
1311 1 262 50 32 46 574
1312 1 262 48 29 43 670
1313 1 262 50 28 45 -1
1314 1 262 54 29 42 708
1315 1 263 39 57 39 -1
1316 1 263 39 58 40 235
1317 1 263 35 57 37 1029
1318 1 263 35 54 40 -1
1319 1 263 33 53 44 -1
1320 1 264 78 74 18 -1
1321 1 264 78 69 17 -1
1322 1 264 79 67 14 -1
1323 1 264 81 69 18 -1
1324 1 264 83 67 21 -1
1325 1 265 60 56 47 -1