ITEM: TIMESTEP
0
ITEM: NUMBER OF ATOMS
6500
ITEM: BOX BOUNDS pp pp pp
0 100
0 100
0 100
ITEM: ATOMS id type mol x y z bP
0 0 0 56 15 84 2272
1 0 0 57 13 83 2807
2 0 0 56 11 83 5125
3 0 0 53 10 87 -1
4 0 0 54 11 89 -1
5 0 0 50 13 89 -1
6 0 1 64 27 54 5263
7 0 1 66 28 58 5264
8 0 1 65 26 58 -1
9 0 1 63 28 60 2824
10 0 1 62 28 58 -1
11 0 1 62 31 60 -1
12 0 2 63 71 85 2562
13 0 2 66 68 82 -1
14 0 2 67 72 84 5713
15 0 2 66 69 80 4884
16 0 2 68 71 78 5710
17 0 2 66 69 81 2567
18 0 3 66 4 86 -1
19 0 3 67 2 83 -1
20 0 3 67 5 85 -1
21 0 3 64 4 86 5061
22 0 3 65 7 87 -1
23 0 3 64 8 86 5824
24 0 4 54 7 81 5124
25 0 4 56 10 80 2853
26 0 4 61 11 79 2612
27 0 4 62 16 80 2232
28 0 4 62 16 79 6253
29 0 4 61 16 76 1926
30 0 5 48 3 83 -1
31 0 5 48 3 85 6018
32 0 5 50 4 85 -1
33 0 5 51 7 86 -1
34 0 5 54 10 88 2273
35 0 5 54 13 88 -1
36 0 6 56 24 81 -1
37 0 6 60 25 79 -1
38 0 6 55 26 78 -1
39 0 6 56 25 80 5539
40 0 6 55 23 79 1506
41 0 6 54 21 80 2781
42 0 7 63 22 73 6424
43 0 7 65 24 71 2083
44 0 7 63 26 69 1538
45 0 7 60 25 67 -1
46 0 7 62 23 68 1803
47 0 7 63 23 64 -1
48 0 8 52 6 77 6051
49 0 8 53 9 75 1597
50 0 8 53 10 77 6252
51 0 8 55 11 74 -1
52 0 8 55 13 75 -1
53 0 8 52 13 71 6390
54 0 9 26 20 40 -1
55 0 9 25 21 38 -1
56 0 9 21 22 41 -1
57 0 9 21 21 37 -1
58 0 9 23 20 34 -1
59 0 9 25 17 36 -1
60 0 10 53 32 83 2961
61 0 10 53 33 86 2502
62 0 10 55 32 87 -1
63 0 10 57 28 85 2963
64 0 10 57 29 88 -1
65 0 10 54 32 87 -1
66 0 11 41 16 94 5932
67 0 11 42 15 94 5927
68 0 11 41 19 91 2218
69 0 11 45 22 91 5162
70 0 11 47 22 92 1733
71 0 11 47 24 91 2858
72 0 12 57 17 77 -1
73 0 12 58 18 76 2118
74 0 12 54 19 75 2204
75 0 12 58 19 78 2255
76 0 12 59 17 80 4991
77 0 12 59 18 78 1948
78 0 13 65 1 50 5608
79 0 13 64 0 52 -1
80 0 13 62 2 56 1795
81 0 13 62 98 55 1798
82 0 13 65 97 52 5610
83 0 13 68 98 50 -1
84 0 14 65 21 70 6216
85 0 14 63 17 68 -1
86 0 14 61 16 67 2171
87 0 14 64 19 69 1804
88 0 14 63 19 68 -1
89 0 14 59 21 70 2331
90 0 15 66 39 84 1758
91 0 15 68 42 86 -1
92 0 15 68 41 84 5643
93 0 15 68 40 85 5953
94 0 15 67 36 82 5644
95 0 15 68 40 84 5641
96 0 16 78 70 58 -1
97 0 16 79 72 56 -1
98 0 16 81 74 57 5238
99 0 16 84 75 54 -1
100 0 16 86 76 58 6078
101 0 16 85 75 54 -1
102 0 17 80 86 24 2173
103 0 17 77 89 21 2172
104 0 17 73 90 20 -1
105 0 17 70 89 21 -1
106 0 17 66 87 21 -1
107 0 17 66 88 25 -1
108 0 18 70 37 84 5645
109 0 18 70 42 84 -1
110 0 18 71 41 80 2889
111 0 18 71 41 75 -1
112 0 18 73 39 76 5188
113 0 18 70 38 77 -1
114 0 19 55 28 88 1671
115 0 19 53 26 86 1698
116 0 19 52 27 89 1672
117 0 19 52 25 92 2864
118 0 19 55 28 91 2863
119 0 19 53 25 89 -1
120 0 20 65 0 68 -1
121 0 20 66 1 73 -1
122 0 20 66 2 68 -1
123 0 20 64 3 67 -1
124 0 20 62 1 68 -1
125 0 20 59 5 68 4865
126 0 21 40 40 80 -1
127 0 21 41 44 82 -1
128 0 21 42 44 80 -1
129 0 21 43 45 79 -1
130 0 21 45 45 82 -1
131 0 21 45 46 82 -1
132 0 22 44 33 81 5572
133 0 22 46 34 83 -1
134 0 22 48 33 86 2362
135 0 22 47 31 88 5175
136 0 22 49 33 85 -1
137 0 22 50 34 82 2503
138 0 23 93 55 73 2922
139 0 23 95 52 72 5325
140 0 23 97 52 74 -1
141 0 23 96 51 71 5329
142 0 23 96 49 70 5326
143 0 23 99 46 71 -1
144 0 24 76 62 24 -1
145 0 24 73 63 22 -1
146 0 24 70 63 18 -1
147 0 24 67 61 19 -1
148 0 24 68 59 19 -1
149 0 24 67 56 21 -1
150 0 25 95 43 77 5925
151 0 25 94 44 74 5922
152 0 25 95 45 70 5921
153 0 25 93 43 74 -1
154 0 25 98 42 73 -1
155 0 25 96 43 72 5327
156 0 26 43 85 34 2472
157 0 26 41 86 30 -1
158 0 26 41 89 34 2473
159 0 26 38 88 30 -1
160 0 26 34 90 30 -1
161 0 26 34 93 31 2653
162 0 27 76 23 20 -1
163 0 27 79 25 19 5601
164 0 27 79 27 18 2003
165 0 27 79 30 14 2001
166 0 27 77 33 15 -1
167 0 27 80 34 18 -1
168 0 28 71 24 76 2258
169 0 28 70 22 72 -1
170 0 28 71 24 72 5110
171 0 28 70 22 68 5876
172 0 28 67 25 68 4938
173 0 28 71 26 65 5225
174 0 29 24 98 4 -1
175 0 29 24 0 3 1817
176 0 29 23 2 2 -1
177 0 29 21 99 3 -1
178 0 29 21 2 6 1816
179 0 29 24 5 8 2574
180 0 30 21 35 86 5790
181 0 30 23 39 84 -1
182 0 30 25 35 84 5791
183 0 30 23 31 85 5789
184 0 30 23 34 84 1661
185 0 30 27 33 82 6288
186 0 31 65 23 31 1820
187 0 31 69 23 29 1819
188 0 31 71 26 26 -1
189 0 31 68 25 23 -1
190 0 31 64 23 22 -1
191 0 31 63 21 23 -1
192 0 32 48 19 77 2542
193 0 32 48 17 80 2778
194 0 32 46 16 83 4968
195 0 32 43 15 86 6350
196 0 32 40 14 82 5285
197 0 32 41 14 82 -1
198 0 33 0 26 25 -1
199 0 33 97 25 28 -1
200 0 33 94 24 31 -1
201 0 33 96 24 32 -1
202 0 33 93 20 32 -1
203 0 33 93 20 35 -1
204 0 34 71 40 73 -1
205 0 34 72 40 75 5187
206 0 34 74 44 73 5308
207 0 34 71 44 76 6030
208 0 34 69 43 77 -1
209 0 34 69 41 81 2887
210 0 35 37 99 80 -1
211 0 35 39 96 78 -1
212 0 35 40 99 80 -1
213 0 35 39 97 83 6418
214 0 35 37 96 79 -1
215 0 35 38 93 78 -1
216 0 36 93 95 87 -1
217 0 36 91 96 88 -1
218 0 36 92 92 88 2619
219 0 36 88 92 88 -1
220 0 36 89 87 87 -1
221 0 36 86 86 85 -1
222 0 37 82 78 51 -1
223 0 37 83 74 51 -1
224 0 37 83 76 52 -1
225 0 37 84 79 50 6058
226 0 37 88 81 49 6361
227 0 37 88 82 44 -1
228 0 38 8 71 72 -1
229 0 38 8 74 76 2163
230 0 38 7 75 80 2164
231 0 38 10 76 80 2161
232 0 38 10 71 81 -1
233 0 38 13 68 82 -1
234 0 39 65 26 82 5629
235 0 39 62 26 84 -1
236 0 39 64 24 88 6233
237 0 39 64 21 88 -1
238 0 39 64 18 90 -1
239 0 39 64 19 91 -1
240 0 40 56 26 67 5462
241 0 40 53 25 66 1766
242 0 40 56 29 67 5458
243 0 40 59 27 67 1752
244 0 40 56 25 70 2210
245 0 40 54 23 68 -1
246 0 41 17 19 53 -1
247 0 41 18 19 55 -1
248 0 41 20 19 55 -1
249 0 41 19 14 56 -1
250 0 41 17 13 53 -1
251 0 41 17 12 48 -1
252 0 42 46 11 78 -1
253 0 42 50 9 76 -1
254 0 42 47 8 74 2523
255 0 42 42 8 74 2342
256 0 42 43 12 74 2337
257 0 42 41 10 73 -1
258 0 43 57 15 73 2461
259 0 43 61 18 74 1859
260 0 43 61 17 77 -1
261 0 43 65 18 80 1726
262 0 43 66 21 82 6155
263 0 43 66 20 84 6154
264 0 44 39 3 98 -1
265 0 44 40 5 97 -1
266 0 44 44 8 97 5914
267 0 44 43 7 95 5026
268 0 44 45 4 98 5027
269 0 44 43 5 0 -1
270 0 45 29 89 71 -1
271 0 45 29 90 73 -1
272 0 45 29 89 76 5342
273 0 45 26 89 74 -1
274 0 45 27 90 75 -1
275 0 45 26 92 73 -1
276 0 46 43 9 3 1684
277 0 46 47 10 3 -1
278 0 46 50 12 3 -1
279 0 46 48 13 3 2551
280 0 46 48 13 99 -1
281 0 46 45 17 99 2554
282 0 47 44 15 75 6394
283 0 47 46 15 79 4972
284 0 47 46 16 81 4973
285 0 47 50 13 82 5524
286 0 47 45 13 81 -1
287 0 47 48 9 82 -1
288 0 48 8 48 80 -1
289 0 48 4 48 77 -1
290 0 48 3 51 78 -1
291 0 48 5 51 79 -1
292 0 48 7 47 81 -1
293 0 48 3 48 82 -1
294 0 49 63 20 77 1858
295 0 49 62 24 77 6219
296 0 49 62 29 77 6494
297 0 49 62 28 78 2250
298 0 49 61 28 80 2712
299 0 49 60 28 80 -1
300 0 50 82 60 51 -1
301 0 50 86 57 50 -1
302 0 50 88 57 46 -1
303 0 50 88 55 47 -1
304 0 50 91 58 47 4931
305 0 50 89 59 46 4928
306 0 51 34 6 96 -1
307 0 51 36 6 93 4831
308 0 51 35 8 93 4830
309 0 51 35 5 94 -1
310 0 51 34 8 96 -1
311 0 51 35 10 99 -1
312 0 52 66 95 64 -1
313 0 52 69 95 65 -1
314 0 52 69 93 66 -1
315 0 52 69 96 63 -1
316 0 52 67 92 62 -1
317 0 52 68 93 62 -1
318 0 53 36 80 71 1862
319 0 53 35 82 69 -1
320 0 53 39 85 70 -1
321 0 53 36 83 70 -1
322 0 53 36 86 73 -1
323 0 53 37 87 77 -1
324 0 54 57 21 61 1973
325 0 54 54 18 62 2730
326 0 54 54 16 65 -1
327 0 54 58 15 67 2170
328 0 54 61 17 66 -1
329 0 54 62 19 67 -1
330 0 55 54 18 72 2460
331 0 55 56 16 69 2462
332 0 55 56 19 71 -1
333 0 55 58 18 75 -1
334 0 55 59 15 75 1977
335 0 55 59 15 78 4990
336 0 56 57 18 75 2438
337 0 56 59 20 78 -1
338 0 56 57 21 76 1839
339 0 56 60 20 76 2771
340 0 56 58 23 75 -1
341 0 56 61 25 75 2766
342 0 57 74 97 44 -1
343 0 57 73 0 46 -1
344 0 57 71 99 44 6270
345 0 57 70 97 42 6273
346 0 57 69 93 44 -1
347 0 57 72 93 43 -1
348 0 58 11 88 80 -1
349 0 58 11 89 82 -1
350 0 58 8 91 85 -1
351 0 58 7 94 89 -1
352 0 58 10 96 86 -1
353 0 58 9 95 86 -1
354 0 59 87 31 27 2015
355 0 59 86 31 27 -1
356 0 59 84 33 27 -1
357 0 59 85 29 27 -1
358 0 59 86 27 28 2013
359 0 59 88 31 30 -1
360 0 60 57 25 80 5073
361 0 60 53 25 80 -1
362 0 60 54 30 79 2671
363 0 60 51 32 81 5241
364 0 60 53 32 77 4809
365 0 60 56 30 75 -1
366 0 61 40 24 16 -1
367 0 61 42 21 16 -1
368 0 61 41 17 19 -1
369 0 61 43 20 18 -1
370 0 61 39 21 20 -1
371 0 61 39 17 23 -1
372 0 62 80 22 69 2090
373 0 62 80 21 67 5654
374 0 62 81 22 66 5656
375 0 62 80 20 69 5658
376 0 62 75 20 69 2091
377 0 62 74 19 74 5302
378 0 63 40 16 87 5494
379 0 63 43 14 86 6347
380 0 63 45 18 85 5831
381 0 63 46 20 84 -1
382 0 63 50 18 86 2245
383 0 63 51 22 84 -1
384 0 64 70 42 60 5934
385 0 64 68 45 58 -1
386 0 64 69 47 60 -1
387 0 64 67 44 62 -1
388 0 64 69 48 62 5938
389 0 64 70 43 62 1675
390 0 65 59 16 78 1949
391 0 65 60 16 78 -1
392 0 65 60 12 79 4992
393 0 65 60 14 76 -1
394 0 65 59 16 76 -1
395 0 65 60 17 73 1610
396 0 66 38 9 88 -1
397 0 66 39 8 89 -1
398 0 66 38 8 87 5014
399 0 66 38 10 87 5287
400 0 66 35 12 89 2526
401 0 66 37 10 87 5683
402 0 67 43 17 87 5160
403 0 67 43 21 90 -1
404 0 67 46 22 92 1732
405 0 67 49 19 92 -1
406 0 67 51 17 92 -1
407 0 67 53 14 94 6301
408 0 68 86 88 41 2265
409 0 68 84 87 39 -1
410 0 68 85 89 41 -1
411 0 68 85 94 41 1852
412 0 68 82 93 40 -1
413 0 68 82 91 40 -1
414 0 69 58 35 23 -1
415 0 69 57 34 21 -1
416 0 69 56 38 24 6247
417 0 69 53 39 26 6245
418 0 69 49 41 25 -1
419 0 69 50 38 22 -1
420 0 70 39 16 87 5493
421 0 70 39 18 88 5497
422 0 70 38 19 89 -1
423 0 70 38 17 86 5498
424 0 70 40 18 89 -1
425 0 70 39 21 91 1920
426 0 71 61 21 87 2235
427 0 71 61 21 85 -1
428 0 71 62 21 86 5053
429 0 71 58 20 86 2234
430 0 71 57 20 89 1652
431 0 71 55 18 90 4860
432 0 72 60 22 82 2238
433 0 72 63 20 84 -1
434 0 72 63 22 81 6156
435 0 72 63 21 81 -1
436 0 72 61 17 79 2451
437 0 72 59 21 77 1836
438 0 73 56 13 73 2436
439 0 73 54 16 71 2437
440 0 73 57 19 70 1838
441 0 73 58 17 72 1611
442 0 73 56 20 71 5560
443 0 73 55 24 73 2203
444 0 74 58 21 80 2241
445 0 74 59 22 80 -1
446 0 74 63 23 83 -1
447 0 74 65 23 85 -1
448 0 74 66 21 84 -1
449 0 74 70 18 85 5742
450 0 75 39 85 62 -1
451 0 75 38 86 65 -1
452 0 75 36 83 65 -1
453 0 75 40 85 66 -1
454 0 75 42 82 68 -1
455 0 75 42 85 66 -1
456 0 76 72 23 69 -1
457 0 76 69 23 68 5487
458 0 76 69 24 72 5875
459 0 76 68 23 69 5873
460 0 76 71 23 70 -1
461 0 76 72 24 69 6124
462 0 77 76 70 33 -1
463 0 77 78 70 34 -1
464 0 77 78 74 32 -1
465 0 77 79 69 33 -1
466 0 77 78 68 32 -1
467 0 77 82 69 29 -1
468 0 78 57 24 64 5426
469 0 78 58 22 67 1755
470 0 78 55 25 65 -1
471 0 78 54 26 63 1767
472 0 78 55 23 60 1972
473 0 78 57 21 62 2732
474 0 79 48 4 97 -1
475 0 79 47 7 95 2907
476 0 79 44 5 95 -1
477 0 79 45 1 93 -1
478 0 79 48 1 92 1629
479 0 79 45 98 89 6420
480 0 80 29 11 77 -1
481 0 80 25 13 77 5802
482 0 80 22 14 76 -1
483 0 80 21 18 79 1634
484 0 80 22 20 80 1632
485 0 80 21 16 77 5801
486 0 81 67 31 82 -1
487 0 81 68 32 83 -1
488 0 81 70 32 80 6466
489 0 81 69 34 77 6383
490 0 81 72 31 75 -1
491 0 81 70 29 76 6483
492 0 82 68 32 70 -1
493 0 82 66 33 68 -1
494 0 82 67 31 67 -1
495 0 82 67 31 72 6064
496 0 82 66 31 67 -1
497 0 82 63 28 70 4900
498 0 83 12 7 23 -1
499 0 83 11 10 20 6377
500 0 83 12 8 23 -1
501 0 83 12 8 20 5694
502 0 83 9 10 23 6376
503 0 83 11 7 25 -1
504 0 84 49 24 89 2859
505 0 84 48 22 86 2857
506 0 84 46 26 87 2314
507 0 84 47 28 83 -1
508 0 84 47 25 84 2947
509 0 84 44 28 83 5573
510 0 85 48 45 3 5418
511 0 85 51 49 2 5419
512 0 85 51 53 99 -1
513 0 85 51 48 98 -1
514 0 85 51 52 96 -1
515 0 85 52 51 98 -1
516 0 86 73 18 72 -1
517 0 86 73 18 77 -1
518 0 86 73 17 77 6357
519 0 86 72 22 77 5365
520 0 86 74 22 75 -1
521 0 86 73 24 78 -1
522 0 87 56 11 95 2026
523 0 87 57 13 96 6300
524 0 87 55 14 98 2027
525 0 87 53 11 95 5029
526 0 87 54 15 94 -1
527 0 87 53 17 94 -1
528 0 88 64 19 67 -1
529 0 88 66 19 67 1871
530 0 88 67 18 68 4976
531 0 88 66 18 68 4975
532 0 88 64 15 71 4978
533 0 88 67 13 69 -1
534 0 89 97 6 98 -1
535 0 89 98 4 94 -1
536 0 89 99 5 96 -1
537 0 89 97 3 98 -1
538 0 89 97 6 2 -1
539 0 89 95 3 2 -1
540 0 90 53 18 83 5526
541 0 90 54 18 87 -1
542 0 90 53 20 84 -1
543 0 90 49 21 81 -1
544 0 90 51 19 80 2780
545 0 90 52 19 83 2987
546 0 91 30 22 35 -1
547 0 91 31 21 31 -1
548 0 91 30 20 29 5899
549 0 91 30 25 30 -1
550 0 91 30 29 28 2182
551 0 91 30 28 26 -1
552 0 92 33 18 78 5964
553 0 92 34 13 77 6329
554 0 92 34 12 80 -1
555 0 92 33 13 80 5260
556 0 92 33 15 80 5966
557 0 92 34 12 82 -1
558 0 93 75 24 40 -1
559 0 93 75 20 40 -1
560 0 93 75 22 44 -1
561 0 93 75 22 41 -1
562 0 93 75 20 41 -1
563 0 93 75 21 42 -1
564 0 94 67 17 63 6039
565 0 94 65 18 61 -1
566 0 94 64 21 62 6042
567 0 94 61 18 63 2301
568 0 94 61 18 59 5004
569 0 94 63 17 59 -1
570 0 95 48 19 70 1575
571 0 95 48 17 70 4910
572 0 95 52 16 69 -1
573 0 95 51 20 69 1666
574 0 95 49 17 69 -1
575 0 95 53 16 70 2440
576 0 96 54 9 78 4999
577 0 96 52 7 82 1520
578 0 96 50 8 78 6050
579 0 96 53 10 75 2832
580 0 96 51 12 73 4907
581 0 96 53 14 72 2167
582 0 97 88 45 84 -1
583 0 97 83 46 84 6434
584 0 97 84 47 79 -1
585 0 97 87 46 80 -1
586 0 97 86 47 77 -1
587 0 97 83 49 74 -1
588 0 98 88 65 83 -1
589 0 98 88 67 85 -1
590 0 98 92 67 85 -1
591 0 98 93 68 88 -1
592 0 98 92 66 89 -1
593 0 98 89 68 86 -1
594 0 99 36 13 90 5404
595 0 99 37 14 95 2593
596 0 99 40 12 95 5931
597 0 99 36 12 95 1737
598 0 99 33 10 92 2512
599 0 99 33 12 88 2945
600 0 100 4 34 33 -1
601 0 100 5 37 34 -1
602 0 100 4 36 30 -1
603 0 100 3 37 25 -1
604 0 100 3 38 29 -1
605 0 100 6 42 28 -1
606 0 101 57 27 78 2673
607 0 101 56 29 74 2672
608 0 101 59 27 75 6373
609 0 101 60 29 72 -1
610 0 101 60 33 69 -1
611 0 101 57 34 71 2547
612 0 102 62 12 75 1697
613 0 102 60 10 72 5351
614 0 102 57 14 73 -1
615 0 102 59 13 73 1978
616 0 102 62 15 74 4993
617 0 102 62 12 76 5703
618 0 103 47 13 75 -1
619 0 103 47 17 76 5119
620 0 103 45 14 75 -1
621 0 103 48 13 73 2047
622 0 103 47 17 73 2980
623 0 103 46 14 74 2976
624 0 104 71 21 75 5111
625 0 104 74 25 74 1842
626 0 104 74 24 75 -1
627 0 104 75 28 75 2491
628 0 104 73 26 77 -1
629 0 104 71 28 79 2813
630 0 105 86 31 59 -1
631 0 105 90 32 57 -1
632 0 105 89 36 59 -1
633 0 105 85 35 60 -1
634 0 105 83 38 60 -1
635 0 105 83 38 57 -1
636 0 106 35 25 27 -1
637 0 106 34 20 26 -1
638 0 106 30 19 29 5901
639 0 106 31 16 27 -1
640 0 106 31 19 23 2709
641 0 106 33 18 26 5902
642 0 107 65 24 84 5036
643 0 107 66 25 79 6264
644 0 107 63 23 82 -1
645 0 107 67 21 81 5970
646 0 107 64 17 82 -1
647 0 107 63 21 83 2556
648 0 108 58 20 69 -1
649 0 108 61 17 72 5698
650 0 108 62 14 75 4996
651 0 108 57 14 75 -1
652 0 108 56 15 71 2520
653 0 108 53 17 74 2464
654 0 109 66 36 1 -1
655 0 109 65 37 99 -1
656 0 109 68 38 99 -1
657 0 109 68 37 2 -1
658 0 109 67 35 5 -1
659 0 109 65 35 2 -1
660 0 110 18 9 79 -1
661 0 110 19 13 78 -1
662 0 110 18 11 81 -1
663 0 110 17 10 81 -1
664 0 110 21 9 82 2080
665 0 110 20 12 86 2081
666 0 111 70 47 77 6026
667 0 111 67 47 77 6027
668 0 111 67 43 79 1941
669 0 111 70 39 79 2483
670 0 111 67 41 78 2480
671 0 111 68 40 83 1938
672 0 112 58 54 47 -1
673 0 112 58 56 48 -1
674 0 112 58 55 49 -1
675 0 112 57 52 50 -1
676 0 112 53 52 52 -1
677 0 112 53 54 53 2107
678 0 113 75 34 61 6342
679 0 113 78 32 62 -1
680 0 113 78 30 64 1720
681 0 113 77 29 65 -1
682 0 113 76 28 69 6200
683 0 113 79 28 66 1716
684 0 114 48 24 83 2783
685 0 114 46 23 79 -1
686 0 114 45 28 79 5244
687 0 114 47 26 79 2541
688 0 114 46 24 80 2948
689 0 114 48 24 84 -1
690 0 115 11 68 12 -1
691 0 115 11 64 11 -1
692 0 115 12 65 12 -1
693 0 115 10 65 12 -1
694 0 115 11 68 15 -1
695 0 115 10 70 18 -1
696 0 116 44 18 83 -1
697 0 116 48 19 81 -1
698 0 116 49 22 82 5832
699 0 116 49 22 83 5881
700 0 116 49 24 81 1703
701 0 116 51 23 79 5522
702 0 117 60 97 82 6240
703 0 117 59 1 83 -1
704 0 117 62 1 85 -1
705 0 117 63 99 84 6239
706 0 117 66 1 86 -1
707 0 117 69 3 84 5468
708 0 118 58 16 73 -1
709 0 118 55 15 77 2983
710 0 118 53 17 80 5523
711 0 118 53 19 82 5878
712 0 118 50 20 78 2738
713 0 118 50 19 82 -1
714 0 119 77 10 61 -1
715 0 119 79 11 60 -1
716 0 119 80 11 57 -1
717 0 119 82 13 58 -1
718 0 119 81 18 59 5896
719 0 119 83 16 61 -1
720 0 120 50 29 83 1809
721 0 120 48 30 82 5174
722 0 120 50 33 85 -1
723 0 120 50 31 89 -1
724 0 120 50 27 86 2861
725 0 120 51 26 82 1808
726 0 121 71 27 23 -1
727 0 121 70 28 24 -1
728 0 121 72 31 24 -1
729 0 121 75 33 21 6180
730 0 121 76 35 21 -1
731 0 121 75 36 19 -1
732 0 122 52 24 61 -1
733 0 122 49 27 63 -1
734 0 122 46 28 66 -1
735 0 122 45 30 64 -1
736 0 122 42 32 66 -1
737 0 122 44 29 68 1583
738 0 123 50 10 0 6415
739 0 123 47 11 2 2553
740 0 123 47 10 0 6414
741 0 123 46 9 96 -1
742 0 123 49 7 95 1951
743 0 123 47 10 95 -1
744 0 124 63 18 70 -1
745 0 124 59 19 71 2330
746 0 124 60 19 68 1801
747 0 124 63 18 67 2750
748 0 124 62 14 64 -1
749 0 124 65 15 64 5008
750 0 125 43 62 91 -1
751 0 125 45 64 95 -1
752 0 125 46 63 95 -1
753 0 125 47 63 99 -1
754 0 125 48 68 0 -1
755 0 125 51 67 1 -1
756 0 126 54 52 50 2110
757 0 126 57 51 53 -1
758 0 126 58 50 53 -1
759 0 126 57 48 54 -1
760 0 126 55 49 51 -1
761 0 126 52 49 52 -1
762 0 127 64 80 58 -1
763 0 127 64 84 55 -1
764 0 127 66 82 56 -1
765 0 127 65 83 57 -1
766 0 127 63 86 60 -1
767 0 127 61 84 64 6099
768 0 128 71 26 71 2492
769 0 128 72 26 73 1847
770 0 128 74 27 73 -1
771 0 128 74 27 72 1919
772 0 128 75 26 71 2495
773 0 128 74 22 73 2072
774 0 129 82 79 94 -1
775 0 129 80 78 92 -1
776 0 129 81 80 92 -1
777 0 129 77 80 91 -1
778 0 129 82 79 92 -1
779 0 129 79 80 93 -1
780 0 130 38 9 95 -1
781 0 130 39 10 96 1681
782 0 130 41 9 94 2040
783 0 130 42 14 94 5228
784 0 130 41 17 95 5916
785 0 130 40 17 97 -1
786 0 131 92 59 68 -1
787 0 131 95 60 68 -1
788 0 131 97 63 69 -1
789 0 131 96 64 68 -1
790 0 131 95 68 67 -1
791 0 131 96 68 70 -1
792 0 132 57 74 74 -1
793 0 132 59 72 77 -1
794 0 132 58 75 77 -1
795 0 132 58 75 79 -1
796 0 132 58 75 81 -1
797 0 132 61 78 78 -1
798 0 133 72 39 78 2481
799 0 133 70 38 78 1555
800 0 133 73 35 77 1558
801 0 133 74 38 81 -1
802 0 133 74 43 80 5189
803 0 133 74 43 83 -1
804 0 134 54 6 71 2850
805 0 134 58 6 72 4863
806 0 134 57 3 70 -1
807 0 134 58 4 70 -1
808 0 134 55 4 73 1834
809 0 134 58 4 73 -1
810 0 135 67 56 33 -1
811 0 135 70 54 34 -1
812 0 135 73 55 37 -1
813 0 135 72 55 34 -1
814 0 135 73 55 30 -1
815 0 135 73 57 32 -1
816 0 136 49 23 68 4906
817 0 136 47 20 71 2720
818 0 136 51 18 72 2741
819 0 136 49 16 74 2835
820 0 136 48 13 76 -1
821 0 136 50 13 76 4908
822 0 137 39 6 74 -1
823 0 137 38 8 77 6326
824 0 137 39 7 81 6226
825 0 137 38 10 85 5405
826 0 137 36 10 81 -1
827 0 137 38 9 85 2005
828 0 138 57 76 39 -1
829 0 138 57 77 42 6082
830 0 138 56 80 43 -1
831 0 138 57 81 41 6081
832 0 138 61 83 39 -1
833 0 138 62 79 36 -1
834 0 139 2 53 23 -1
835 0 139 3 52 27 -1
836 0 139 4 48 24 -1
837 0 139 6 50 26 -1
838 0 139 6 50 23 -1
839 0 139 6 53 20 -1
840 0 140 84 6 60 -1
841 0 140 87 3 61 -1
842 0 140 83 4 61 -1
843 0 140 85 3 58 -1
844 0 140 83 4 54 -1
845 0 140 83 9 53 -1
846 0 141 47 29 90 2860
847 0 141 42 28 91 5543
848 0 141 42 25 91 5545
849 0 141 45 28 88 5176
850 0 141 44 27 86 2034
851 0 141 42 23 87 2311
852 0 142 61 75 80 -1
853 0 142 64 74 82 -1
854 0 142 66 72 81 4889
855 0 142 68 72 81 2565
856 0 142 69 71 82 5711
857 0 142 70 70 83 -1
858 0 143 5 91 14 -1
859 0 143 9 91 12 -1
860 0 143 9 91 14 -1
861 0 143 10 87 15 -1
862 0 143 13 87 11 -1
863 0 143 12 91 11 -1
864 0 144 32 9 86 6014
865 0 144 34 8 88 4828
866 0 144 37 6 85 2009
867 0 144 33 9 86 4829
868 0 144 33 10 88 2528
869 0 144 35 9 88 5288
870 0 145 57 99 88 2137
871 0 145 57 97 91 -1
872 0 145 58 94 89 5515
873 0 145 57 97 93 1687
874 0 145 58 96 91 -1
875 0 145 58 97 86 -1
876 0 146 5 90 53 -1
877 0 146 2 91 56 -1
878 0 146 1 88 57 -1
879 0 146 4 86 54 2884
880 0 146 9 86 53 -1
881 0 146 7 86 53 2882
882 0 147 68 27 57 -1
883 0 147 68 26 58 -1
884 0 147 69 26 58 -1
885 0 147 67 26 54 5267
886 0 147 67 23 57 -1
887 0 147 70 22 59 -1
888 0 148 95 66 33 -1
889 0 148 93 68 37 2368
890 0 148 93 72 39 2828
891 0 148 89 74 40 -1
892 0 148 87 75 41 -1
893 0 148 85 73 43 -1
894 0 149 41 29 89 1886
895 0 149 40 29 87 2968
896 0 149 41 31 86 4875
897 0 149 40 33 83 -1
898 0 149 40 29 82 -1
899 0 149 39 30 82 2965
900 0 150 42 13 69 -1
901 0 150 41 13 70 -1
902 0 150 44 14 68 -1
903 0 150 42 15 66 -1
904 0 150 45 15 68 4909
905 0 150 41 18 69 -1
906 0 151 78 26 13 -1
907 0 151 77 29 12 -1
908 0 151 81 30 12 -1
909 0 151 79 26 10 -1
910 0 151 75 24 12 5599
911 0 151 74 26 14 -1
912 0 152 69 21 3 5843
913 0 152 73 20 6 -1
914 0 152 73 17 9 -1
915 0 152 70 17 11 -1
916 0 152 67 15 8 -1
917 0 152 69 17 11 -1
918 0 153 39 18 86 -1
919 0 153 37 16 84 5496
920 0 153 38 16 81 5965
921 0 153 41 18 82 4962
922 0 153 42 16 84 5284
923 0 153 44 19 83 -1
924 0 154 62 53 14 6174
925 0 154 60 55 15 -1
926 0 154 64 56 15 -1
927 0 154 61 58 16 -1
928 0 154 63 57 16 -1
929 0 154 63 56 11 -1
930 0 155 54 19 70 5424
931 0 155 55 21 69 5423
932 0 155 56 20 74 1837
933 0 155 57 20 79 2252
934 0 155 56 18 82 2244
935 0 155 55 17 77 4917
936 0 156 16 88 35 -1
937 0 156 19 91 38 -1
938 0 156 22 91 34 -1
939 0 156 23 94 37 -1
940 0 156 22 92 35 -1
941 0 156 20 92 31 -1
942 0 157 94 68 51 -1
943 0 157 94 64 49 -1
944 0 157 93 60 50 6196
945 0 157 91 60 54 -1
946 0 157 91 61 55 4926
947 0 157 95 61 55 -1
948 0 158 2 41 79 -1
949 0 158 1 39 75 -1
950 0 158 99 42 72 -1
951 0 158 99 45 70 -1
952 0 158 0 44 75 -1
953 0 158 0 44 74 -1
954 0 159 53 31 69 -1
955 0 159 53 30 68 1989
956 0 159 55 32 64 -1
957 0 159 58 32 64 2194
958 0 159 58 29 64 -1
959 0 159 60 27 68 2753
960 0 160 43 21 80 -1
961 0 160 41 24 78 -1
962 0 160 43 24 81 -1
963 0 160 47 27 81 -1
964 0 160 46 22 81 -1
965 0 160 48 19 83 -1
966 0 161 66 32 72 -1
967 0 161 66 35 69 4899
968 0 161 63 31 69 4898
969 0 161 61 30 72 6372
970 0 161 63 32 72 6072
971 0 161 63 33 67 -1
972 0 162 61 22 62 2821
973 0 162 58 24 60 1970
974 0 162 57 22 61 2302
975 0 162 56 22 65 4920
976 0 162 55 26 63 -1
977 0 162 52 30 64 5459
978 0 163 26 51 7 -1
979 0 163 30 52 10 -1
980 0 163 29 52 6 -1
981 0 163 28 50 6 -1
982 0 163 29 55 6 -1
983 0 163 27 54 5 -1
984 0 164 73 70 97 -1
985 0 164 71 72 99 -1
986 0 164 74 76 98 5019
987 0 164 76 79 0 5020
988 0 164 76 79 99 5021
989 0 164 73 82 97 -1
990 0 165 1 32 75 -1
991 0 165 2 32 73 -1
992 0 165 98 33 70 -1
993 0 165 93 33 70 -1
994 0 165 90 34 69 5430
995 0 165 90 38 71 5432
996 0 166 47 20 90 -1
997 0 166 48 17 88 6348
998 0 166 50 15 89 5999
999 0 166 54 14 88 5663
1000 0 166 58 15 85 2873
1001 0 166 59 19 88 -1
1002 0 167 40 65 40 -1
1003 0 167 37 68 40 -1
1004 0 167 38 72 43 -1
1005 0 167 40 72 43 -1
1006 0 167 37 71 44 -1
1007 0 167 36 71 48 -1
1008 0 168 78 19 66 2075
1009 0 168 76 18 67 5655
1010 0 168 78 19 71 -1
1011 0 168 76 21 72 6125
1012 0 168 75 20 73 -1
1013 0 168 76 17 75 6126
1014 0 169 74 87 24 -1
1015 0 169 72 87 23 -1
1016 0 169 72 92 23 -1
1017 0 169 72 92 22 -1
1018 0 169 75 92 19 -1
1019 0 169 75 91 14 -1
1020 0 170 54 16 76 -1
1021 0 170 54 14 75 2736
1022 0 170 53 18 76 -1
1023 0 170 55 17 80 -1
1024 0 170 55 17 79 2448
1025 0 170 51 18 77 5115
1026 0 171 35 93 95 -1
1027 0 171 39 92 93 6211
1028 0 171 43 91 92 -1
1029 0 171 46 91 90 -1
1030 0 171 49 90 91 -1
1031 0 171 51 86 90 -1
1032 0 172 84 5 95 -1
1033 0 172 82 2 96 -1
1034 0 172 81 0 93 -1
1035 0 172 82 97 90 -1
1036 0 172 84 0 90 -1
1037 0 172 85 1 87 -1
1038 0 173 49 29 81 2384
1039 0 173 46 29 78 5243
1040 0 173 45 33 76 4812
1041 0 173 46 34 77 2399
1042 0 173 45 35 76 -1
1043 0 173 41 37 76 -1
1044 0 174 56 25 66 4919
1045 0 174 52 22 67 1574
1046 0 174 53 19 69 2188
1047 0 174 51 20 67 1663
1048 0 174 53 24 69 1757
1049 0 174 53 25 71 -1
1050 0 175 24 92 78 -1
1051 0 175 22 88 76 -1
1052 0 175 23 92 75 -1
1053 0 175 20 90 73 -1
1054 0 175 19 92 75 -1
1055 0 175 19 91 75 -1
1056 0 176 19 27 45 -1
1057 0 176 20 27 44 -1
1058 0 176 18 25 42 -1
1059 0 176 15 24 39 -1
1060 0 176 16 19 39 -1
1061 0 176 17 19 34 -1
1062 0 177 65 5 89 -1
1063 0 177 64 2 88 -1
1064 0 177 61 2 87 1505
1065 0 177 58 3 90 2416
1066 0 177 58 2 92 -1
1067 0 177 55 0 91 2136
1068 0 178 29 46 14 -1
1069 0 178 27 45 12 -1
1070 0 178 31 45 10 -1
1071 0 178 28 48 11 -1
1072 0 178 30 52 9 -1
1073 0 178 32 50 7 -1
1074 0 179 64 83 59 -1
1075 0 179 66 84 62 -1
1076 0 179 65 86 63 -1
1077 0 179 66 86 64 6097
1078 0 179 65 91 64 -1
1079 0 179 66 90 67 6098
1080 0 180 68 16 77 1694
1081 0 180 66 15 74 2453
1082 0 180 64 18 72 1867
1083 0 180 65 19 71 6428
1084 0 180 65 16 67 1931
1085 0 180 62 16 67 -1
1086 0 181 53 49 53 -1
1087 0 181 56 52 52 -1
1088 0 181 54 53 49 -1
1089 0 181 51 51 50 -1
1090 0 181 49 52 47 -1
1091 0 181 47 50 47 -1
1092 0 182 57 7 2 -1
1093 0 182 60 6 99 -1
1094 0 182 58 4 95 -1
1095 0 182 58 6 97 -1
1096 0 182 57 10 95 6299
1097 0 182 58 14 93 5664
1098 0 183 34 79 76 -1
1099 0 183 35 82 77 -1
1100 0 183 32 79 77 -1
1101 0 183 31 79 78 -1
1102 0 183 31 79 81 -1
1103 0 183 28 80 80 -1
1104 0 184 61 33 73 5627
1105 0 184 60 30 75 -1
1106 0 184 56 27 75 5537
1107 0 184 56 27 70 -1
1108 0 184 54 24 73 -1
1109 0 184 56 22 74 2253
1110 0 185 71 23 82 -1
1111 0 185 69 22 78 2349
1112 0 185 68 17 78 1692
1113 0 185 69 17 78 1693
1114 0 185 68 16 78 6324
1115 0 185 68 18 81 6356
1116 0 186 33 10 74 -1
1117 0 186 37 9 73 2659
1118 0 186 38 6 76 2658
1119 0 186 42 4 75 2223
1120 0 186 43 2 73 -1
1121 0 186 47 3 72 -1
1122 0 187 41 4 84 5978
1123 0 187 41 1 88 2695
1124 0 187 37 99 89 2381
1125 0 187 38 98 87 5070
1126 0 187 36 99 85 2699
1127 0 187 40 0 84 2698
1128 0 188 56 17 78 2123
1129 0 188 57 19 82 -1
1130 0 188 56 17 85 -1
1131 0 188 53 16 82 5525
1132 0 188 50 14 84 -1
1133 0 188 49 10 81 1601
1134 0 189 38 14 87 -1
1135 0 189 40 13 91 -1
1136 0 189 36 13 94 6132
1137 0 189 35 15 94 2031
1138 0 189 34 11 94 6158
1139 0 189 38 11 96 2029
1140 0 190 30 38 14 -1
1141 0 190 27 35 13 -1
1142 0 190 28 35 15 -1
1143 0 190 26 37 11 5164
1144 0 190 28 40 13 5762
1145 0 190 27 40 14 5764
1146 0 191 70 28 78 2350
1147 0 191 72 29 74 -1
1148 0 191 70 28 77 2812
1149 0 191 68 27 76 6294
1150 0 191 66 29 77 6485
1151 0 191 65 33 76 6385
1152 0 192 63 18 75 -1
1153 0 192 63 20 79 1944
1154 0 192 62 24 78 2675
1155 0 192 59 23 80 2120
1156 0 192 59 23 76 -1
1157 0 192 58 24 75 2251
1158 0 193 96 7 79 2293
1159 0 193 99 5 81 -1
1160 0 193 0 8 77 -1
1161 0 193 0 5 77 -1
1162 0 193 3 8 75 -1
1163 0 193 6 5 74 -1
1164 0 194 42 25 1 -1
1165 0 194 41 24 99 -1
1166 0 194 40 27 95 5544
1167 0 194 42 29 91 1884
1168 0 194 41 28 92 -1
1169 0 194 40 29 92 -1
1170 0 195 8 76 28 -1
1171 0 195 8 79 29 -1
1172 0 195 8 76 27 -1
1173 0 195 12 74 27 2764
1174 0 195 9 71 29 2765
1175 0 195 6 70 26 -1
1176 0 196 55 6 93 2025
1177 0 196 54 6 92 5530
1178 0 196 53 7 95 6298
1179 0 196 54 5 92 -1
1180 0 196 52 2 94 1628
1181 0 196 54 2 98 5042
1182 0 197 13 29 13 -1
1183 0 197 13 25 13 -1
1184 0 197 15 22 11 -1
1185 0 197 16 19 14 5378
1186 0 197 15 18 15 -1
1187 0 197 15 17 15 -1
1188 0 198 24 53 29 -1
1189 0 198 23 49 30 -1
1190 0 198 21 49 31 -1
1191 0 198 24 52 32 -1
1192 0 198 26 51 36 -1
1193 0 198 22 51 37 -1
1194 0 199 60 35 34 -1
1195 0 199 59 35 36 6445
1196 0 199 57 36 37 -1
1197 0 199 58 36 38 6446
1198 0 199 54 38 40 6116
1199 0 199 55 39 45 6449
1200 0 200 65 10 83 5059
1201 0 200 66 10 85 5060
1202 0 200 67 10 83 -1
1203 0 200 65 8 84 -1
1204 0 200 62 10 85 5983
1205 0 200 59 6 85 5985
1206 0 201 45 19 93 5178
1207 0 201 40 18 93 5182
1208 0 201 40 15 97 1890
1209 0 201 40 14 93 6135
1210 0 201 37 15 96 5183
1211 0 201 38 11 94 5025
1212 0 202 62 35 65 -1
1213 0 202 61 38 64 1617
1214 0 202 63 35 66 -1
1215 0 202 62 36 62 1775
1216 0 202 60 33 62 -1
1217 0 202 63 29 63 2056
1218 0 203 44 10 80 5549
1219 0 203 45 9 76 6021
1220 0 203 48 7 78 6020
1221 0 203 49 10 78 2795
1222 0 203 47 7 77 -1
1223 0 203 46 8 79 2774
1224 0 204 70 17 86 -1
1225 0 204 68 21 88 5361
1226 0 204 66 24 86 2149
1227 0 204 63 26 84 5055
1228 0 204 66 24 85 6109
1229 0 204 67 25 86 -1
1230 0 205 62 8 82 -1
1231 0 205 60 9 82 -1
1232 0 205 56 11 82 4913
1233 0 205 58 14 82 1508
1234 0 205 56 14 80 -1
1235 0 205 60 14 81 4989
1236 0 206 43 19 95 2044
1237 0 206 39 19 96 6131
1238 0 206 36 18 95 -1
1239 0 206 38 15 98 1739
1240 0 206 36 16 0 1893
1241 0 206 40 16 98 -1
1242 0 207 54 18 75 5000
1243 0 207 53 19 78 -1
1244 0 207 56 16 80 -1
1245 0 207 57 12 83 2802
1246 0 207 60 10 85 5827
1247 0 207 63 12 85 5826
1248 0 208 63 25 73 6218
1249 0 208 62 23 72 5874
1250 0 208 60 25 73 -1
1251 0 208 56 24 74 1840
1252 0 208 55 24 74 2606
1253 0 208 59 21 75 -1
1254 0 209 27 86 80 -1
1255 0 209 28 81 80 -1
1256 0 209 30 79 81 -1
1257 0 209 30 82 79 -1
1258 0 209 31 83 81 5339
1259 0 209 33 83 81 -1
1260 0 210 62 11 80 2614
1261 0 210 62 8 77 -1
1262 0 210 59 7 73 -1
1263 0 210 58 8 74 1833
1264 0 210 58 9 71 4866
1265 0 210 59 11 74 5350
1266 0 211 32 6 95 -1
1267 0 211 36 8 96 1680
1268 0 211 36 9 91 1736
1269 0 211 39 6 91 5906
1270 0 211 40 8 95 -1
1271 0 211 41 9 95 5685
1272 0 212 99 17 18 -1
1273 0 212 1 15 22 -1
1274 0 212 98 16 18 1530
1275 0 212 95 14 19 1531
1276 0 212 94 16 22 -1
1277 0 212 94 20 20 -1
1278 0 213 69 23 66 -1
1279 0 213 71 26 69 5223
1280 0 213 69 29 72 2351
1281 0 213 71 26 70 -1
1282 0 213 72 23 73 1846
1283 0 213 69 20 72 2257
1284 0 214 99 64 87 -1
1285 0 214 2 63 89 -1
1286 0 214 5 60 91 -1
1287 0 214 5 59 88 -1
1288 0 214 8 57 90 -1
1289 0 214 8 58 93 -1
1290 0 215 58 18 71 -1
1291 0 215 59 21 71 -1
1292 0 215 61 23 68 2735
1293 0 215 62 27 68 4902
1294 0 215 64 27 70 5112
1295 0 215 65 25 70 5488
1296 0 216 52 28 71 2445
1297 0 216 55 26 68 1765
1298 0 216 58 26 71 6425
1299 0 216 59 24 71 1754
1300 0 216 58 26 69 5461
1301 0 216 57 30 68 5460
1302 0 217 42 0 79 2776
1303 0 217 44 99 81 -1
1304 0 217 42 3 79 6223
1305 0 217 42 0 78 -1
1306 0 217 40 1 75 1710
1307 0 217 43 3 75 2222
1308 0 218 47 12 1 2904
1309 0 218 49 11 98 2630
1310 0 218 45 9 99 -1
1311 0 218 46 4 99 4982
1312 0 218 45 6 2 4983
1313 0 218 48 5 99 -1
1314 0 219 43 3 85 5979
1315 0 219 42 4 87 6222
1316 0 219 45 0 87 2694
1317 0 219 46 95 86 -1
1318 0 219 50 95 87 -1
1319 0 219 49 95 86 -1
1320 0 220 63 21 88 1655
1321 0 220 61 24 88 1654
1322 0 220 59 20 86 2870
1323 0 220 58 20 84 2371
1324 0 220 56 18 83 5076
1325 0 220 59 19 85 -1
1326 0 221 46 15 91 4859
1327 0 221 44 11 93 5913
1328 0 221 44 14 93 -1
1329 0 221 48 13 94 1952
1330 0 221 44 15 93 -1
1331 0 221 44 12 96 2631
1332 0 222 52 19 69 1576