ITEM: TIMESTEP
0
ITEM: NUMBER OF ATOMS
6500
ITEM: BOX BOUNDS pp pp pp
0 100
0 100
0 100
ITEM: ATOMS id type mol x y z bP
0 0 0 3 24 20 -1
1 0 0 3 26 20 -1
2 0 0 6 28 20 -1
3 0 0 10 26 18 -1
4 0 0 13 24 19 -1
5 0 0 9 25 16 -1
6 0 1 64 42 68 2009
7 0 1 62 42 69 5844
8 0 1 59 44 70 -1
9 0 1 60 44 68 6267
10 0 1 64 44 67 -1
11 0 1 63 47 68 2325
12 0 2 38 42 67 4777
13 0 2 36 38 67 2907
14 0 2 38 36 66 5348
15 0 2 38 39 64 1846
16 0 2 39 38 63 2861
17 0 2 36 39 66 1548
18 0 3 63 43 68 -1
19 0 3 62 41 65 5314
20 0 3 62 42 61 5312
21 0 3 60 39 64 6439
22 0 3 55 38 65 5245
23 0 3 55 37 68 2570
24 0 4 92 24 17 -1
25 0 4 91 20 14 2230
26 0 4 88 17 13 -1
27 0 4 88 21 16 2227
28 0 4 88 22 20 -1
29 0 4 88 22 19 -1
30 0 5 64 41 61 2165
31 0 5 66 39 59 5315
32 0 5 62 37 61 5790
33 0 5 64 41 59 2162
34 0 5 64 40 57 2760
35 0 5 63 37 53 2606
36 0 6 45 39 63 2942
37 0 6 42 37 65 -1
38 0 6 43 36 63 -1
39 0 6 41 37 61 -1
40 0 6 44 36 63 2040
41 0 6 43 40 66 -1
42 0 7 49 45 77 -1
43 0 7 50 48 78 5951
44 0 7 49 47 76 5630
45 0 7 45 45 76 -1
46 0 7 44 45 76 -1
47 0 7 43 46 78 1911
48 0 8 39 43 62 5224
49 0 8 41 42 64 -1
50 0 8 42 38 66 -1
51 0 8 39 40 63 2710
52 0 8 39 45 64 4892
53 0 8 40 44 66 2711
54 0 9 53 38 61 1950
55 0 9 52 38 62 4850
56 0 9 50 36 61 -1
57 0 9 46 33 60 5995
58 0 9 48 31 64 2500
59 0 9 51 33 62 2200
60 0 10 45 27 61 -1
61 0 10 43 30 59 2550
62 0 10 47 32 60 -1
63 0 10 48 32 59 6155
64 0 10 50 34 57 5152
65 0 10 48 31 54 -1
66 0 11 55 56 58 -1
67 0 11 51 56 59 2970
68 0 11 54 54 59 5038
69 0 11 54 55 60 6379
70 0 11 54 53 56 5383
71 0 11 56 53 58 5795
72 0 12 59 31 61 6093
73 0 12 59 34 63 2937
74 0 12 58 31 65 5705
75 0 12 57 32 60 4851
76 0 12 54 30 59 2425
77 0 12 53 34 61 4751
78 0 13 40 36 55 -1
79 0 13 40 35 56 1722
80 0 13 39 37 57 -1
81 0 13 41 38 58 5829
82 0 13 45 38 57 -1
83 0 13 42 38 57 4900
84 0 14 31 41 51 -1
85 0 14 35 42 50 -1
86 0 14 36 47 49 -1
87 0 14 34 47 45 -1
88 0 14 34 50 47 -1
89 0 14 31 47 50 -1
90 0 15 31 58 1 -1
91 0 15 31 55 2 -1
92 0 15 31 53 3 -1
93 0 15 28 51 4 -1
94 0 15 29 50 2 5203
95 0 15 27 47 3 -1
96 0 16 54 51 68 -1
97 0 16 54 47 71 2016
98 0 16 57 46 69 -1
99 0 16 55 49 67 2516
100 0 16 58 46 64 2846
101 0 16 56 49 62 5010
102 0 17 17 38 48 -1
103 0 17 18 36 46 -1
104 0 17 21 37 44 -1
105 0 17 19 36 44 -1
106 0 17 20 34 41 -1
107 0 17 17 33 40 -1
108 0 18 44 44 66 -1
109 0 18 48 44 63 -1
110 0 18 52 42 62 -1
111 0 18 48 43 60 -1
112 0 18 47 40 62 -1
113 0 18 51 38 64 2684
114 0 19 62 51 67 -1
115 0 19 64 53 69 6232
116 0 19 64 52 69 2431
117 0 19 64 51 67 2869
118 0 19 63 53 66 5756
119 0 19 65 54 70 6455
120 0 20 36 46 66 1747
121 0 20 33 47 69 -1
122 0 20 34 47 65 -1
123 0 20 32 43 67 -1
124 0 20 36 43 70 6050
125 0 20 33 43 68 2858
126 0 21 51 35 85 -1
127 0 21 54 38 83 1577
128 0 21 54 36 84 5005
129 0 21 52 36 81 -1
130 0 21 51 37 84 6218
131 0 21 56 37 83 4986
132 0 22 61 50 66 -1
133 0 22 59 47 63 2204
134 0 22 60 44 61 6265
135 0 22 60 44 62 6009
136 0 22 57 43 59 6342
137 0 22 56 45 63 2844
138 0 23 52 34 73 6144
139 0 23 50 30 73 -1
140 0 23 53 31 72 2922
141 0 23 50 33 69 5241
142 0 23 49 37 72 2033
143 0 23 47 34 70 5022
144 0 24 58 48 79 6042
145 0 24 60 45 82 2301
146 0 24 58 44 84 2300
147 0 24 58 45 80 -1
148 0 24 57 43 82 -1
149 0 24 53 44 84 2648
150 0 25 61 47 61 6007
151 0 25 62 44 57 6006
152 0 25 63 42 56 2841
153 0 25 59 41 55 1787
154 0 25 60 44 56 -1
155 0 25 60 43 57 2295
156 0 26 82 47 92 -1
157 0 26 78 48 90 -1
158 0 26 77 47 92 -1
159 0 26 74 48 89 -1
160 0 26 72 48 86 -1
161 0 26 72 47 87 -1
162 0 27 40 55 71 -1
163 0 27 42 53 73 -1
164 0 27 45 57 73 5710
165 0 27 46 55 71 2362
166 0 27 48 54 74 5117
167 0 27 49 56 71 5115
168 0 28 48 47 68 2521
169 0 28 46 46 65 2382
170 0 28 45 48 63 5796
171 0 28 48 49 60 5306
172 0 28 49 47 64 1803
173 0 28 50 45 65 -1
174 0 29 46 43 50 -1
175 0 29 47 47 48 2984
176 0 29 51 45 48 -1
177 0 29 53 48 47 2713
178 0 29 52 51 51 2714
179 0 29 54 49 52 -1
180 0 30 9 99 82 -1
181 0 30 10 2 85 -1
182 0 30 10 1 87 -1
183 0 30 13 4 88 -1
184 0 30 16 4 90 -1
185 0 30 15 6 86 -1
186 0 31 53 35 83 1822
187 0 31 52 32 82 5071
188 0 31 49 32 81 2954
189 0 31 49 35 84 -1
190 0 31 47 31 82 1756
191 0 31 47 36 82 4984
192 0 32 41 38 75 1788
193 0 32 37 38 76 4760
194 0 32 40 39 78 1977
195 0 32 39 35 77 -1
196 0 32 37 38 80 2589
197 0 32 37 36 81 6124
198 0 33 32 40 66 4865
199 0 33 31 40 67 -1
200 0 33 34 41 64 -1
201 0 33 31 37 64 5028
202 0 33 32 37 62 5024
203 0 33 35 40 62 -1
204 0 34 53 29 73 2351
205 0 34 54 30 68 6141
206 0 34 52 28 66 1682
207 0 34 54 27 66 -1
208 0 34 55 31 65 2989
209 0 34 54 29 63 2424
210 0 35 55 57 54 1547
211 0 35 54 53 57 5321
212 0 35 55 57 59 5082
213 0 35 56 59 55 2399
214 0 35 58 63 53 -1
215 0 35 58 67 52 -1
216 0 36 59 54 51 -1
217 0 36 57 51 53 6070
218 0 36 58 49 53 2987
219 0 36 54 49 50 -1
220 0 36 54 48 45 -1
221 0 36 54 46 43 -1
222 0 37 46 33 70 2946
223 0 37 45 32 67 1609
224 0 37 47 30 65 4989
225 0 37 51 31 62 5418
226 0 37 52 33 60 2806
227 0 37 52 33 55 1700
228 0 38 51 26 71 -1
229 0 38 54 29 70 2988
230 0 38 52 27 74 5686
231 0 38 51 28 75 5595
232 0 38 53 27 73 5598
233 0 38 55 26 76 2257
234 0 39 48 35 68 1989
235 0 39 46 36 65 1726
236 0 39 43 36 65 -1
237 0 39 42 33 69 4837
238 0 39 39 31 66 -1
239 0 39 38 30 67 4992
240 0 40 55 52 73 5736
241 0 40 58 50 72 2432
242 0 40 60 51 75 2433
243 0 40 58 49 71 2544
244 0 40 61 51 69 -1
245 0 40 61 51 71 2082
246 0 41 56 3 71 -1
247 0 41 58 4 72 6368
248 0 41 58 8 69 -1
249 0 41 62 5 70 -1
250 0 41 63 3 70 6370
251 0 41 63 99 70 -1
252 0 42 43 33 49 -1
253 0 42 45 32 48 6179
254 0 42 47 36 50 5176
255 0 42 47 35 54 5171
256 0 42 48 36 53 1759
257 0 42 45 36 57 5904
258 0 43 46 36 79 5008
259 0 43 43 37 78 4805
260 0 43 42 36 75 -1
261 0 43 43 37 73 5524
262 0 43 45 38 74 1796
263 0 43 47 39 71 -1
264 0 44 60 53 47 -1
265 0 44 56 52 45 6404
266 0 44 54 50 47 2450
267 0 44 55 48 50 2453
268 0 44 53 44 51 -1
269 0 44 50 47 49 -1
270 0 45 50 42 79 5769
271 0 45 52 42 79 -1
272 0 45 50 40 82 5936
273 0 45 50 37 83 -1
274 0 45 52 41 84 6334
275 0 45 56 41 84 -1
276 0 46 49 27 76 -1
277 0 46 52 31 77 2925
278 0 46 53 28 78 5685
279 0 46 51 27 79 5593
280 0 46 50 26 81 5404
281 0 46 54 27 79 2411
282 0 47 47 39 74 6149
283 0 47 46 42 71 2124
284 0 47 49 40 69 1770
285 0 47 47 40 73 -1
286 0 47 49 40 74 1775
287 0 47 49 41 77 -1
288 0 48 59 53 52 4769
289 0 48 63 56 51 -1
290 0 48 65 58 54 -1
291 0 48 70 59 54 -1
292 0 48 68 56 52 6322
293 0 48 67 53 54 -1
294 0 49 56 48 59 -1
295 0 49 55 52 61 5084
296 0 49 52 49 61 2121
297 0 49 54 47 62 2117
298 0 49 55 50 63 -1
299 0 49 54 52 61 -1
300 0 50 46 26 71 5278
301 0 50 44 29 74 4800
302 0 50 43 31 73 -1
303 0 50 42 32 71 -1
304 0 50 43 37 72 2592
305 0 50 43 37 71 1500
306 0 51 43 46 63 5225
307 0 51 40 50 63 2827
308 0 51 39 54 64 -1
309 0 51 42 55 60 2772
310 0 51 38 54 61 -1
311 0 51 37 55 59 -1
312 0 52 52 30 76 -1
313 0 52 50 30 74 2924
314 0 52 49 31 71 -1
315 0 52 50 30 67 -1
316 0 52 50 29 66 2934
317 0 52 48 32 67 -1
318 0 53 45 36 76 6021
319 0 53 47 36 78 5099
320 0 53 49 33 77 6174
321 0 53 47 37 78 6214
322 0 53 44 37 79 5939
323 0 53 45 38 78 5018
324 0 54 55 54 51 1632
325 0 54 51 56 53 6260
326 0 54 49 56 51 -1
327 0 54 49 58 51 -1
328 0 54 48 56 54 2717
329 0 54 46 55 57 1564
330 0 55 19 51 81 -1
331 0 55 16 52 83 -1
332 0 55 18 52 86 -1
333 0 55 22 51 86 -1
334 0 55 23 53 84 -1
335 0 55 24 54 81 -1
336 0 56 57 39 47 -1
337 0 56 59 42 50 6308
338 0 56 60 38 53 2626
339 0 56 59 37 54 1833
340 0 56 56 35 54 2838
341 0 56 54 36 53 -1
342 0 57 59 48 33 -1
343 0 57 57 44 34 -1
344 0 57 55 45 32 -1
345 0 57 56 41 29 -1
346 0 57 57 37 30 -1
347 0 57 58 36 32 -1
348 0 58 51 54 67 -1
349 0 58 51 52 66 6385
350 0 58 53 52 66 -1
351 0 58 53 51 66 5851
352 0 58 53 54 66 5119
353 0 58 54 50 66 2020
354 0 59 81 41 5 5586
355 0 59 82 39 9 -1
356 0 59 83 36 5 5588
357 0 59 85 36 5 5589
358 0 59 83 34 8 -1
359 0 59 84 39 8 -1
360 0 60 48 44 72 -1
361 0 60 47 40 71 2911
362 0 60 50 40 71 2511
363 0 60 51 40 73 6166
364 0 60 52 41 72 6011
365 0 60 52 39 69 2573
366 0 61 45 27 71 -1
367 0 61 45 26 69 5722
368 0 61 49 27 70 -1
369 0 61 50 28 70 2465
370 0 61 53 29 66 6100
371 0 61 50 25 67 -1
372 0 62 47 51 77 -1
373 0 62 46 52 77 5711
374 0 62 48 49 79 -1
375 0 62 44 49 79 -1
376 0 62 45 46 78 2081
377 0 62 41 46 78 1913
378 0 63 48 37 72 2343
379 0 63 49 39 73 6148
380 0 63 46 39 72 2512
381 0 63 47 42 75 2959
382 0 63 46 42 78 5770
383 0 63 49 43 76 -1
384 0 64 37 41 67 2906
385 0 64 37 41 64 2859
386 0 64 34 41 66 -1
387 0 64 36 41 64 2860
388 0 64 38 41 65 5525
389 0 64 41 40 61 5223
390 0 65 42 41 83 1597
391 0 65 41 38 80 4877
392 0 65 42 39 82 4882
393 0 65 45 41 82 4826
394 0 65 47 42 79 2958
395 0 65 45 40 82 -1
396 0 66 60 29 83 -1
397 0 66 56 29 84 5402
398 0 66 58 29 84 -1
399 0 66 59 28 81 5412
400 0 66 59 28 86 5592
401 0 66 61 24 84 5295
402 0 67 38 52 60 -1
403 0 67 38 53 60 -1
404 0 67 42 54 60 -1
405 0 67 44 50 61 -1
406 0 67 48 53 60 5050
407 0 67 48 52 61 5304
408 0 68 46 48 72 -1
409 0 68 46 48 70 2520
410 0 68 48 45 73 5207
411 0 68 46 45 73 2733
412 0 68 51 44 74 6015
413 0 68 49 48 76 5950
414 0 69 59 43 66 1520
415 0 69 60 46 66 2004
416 0 69 59 51 67 5011
417 0 69 57 52 65 5752
418 0 69 58 50 68 5659
419 0 69 57 51 68 2546
420 0 70 65 52 46 -1
421 0 70 63 54 47 2669
422 0 70 61 52 44 -1
423 0 70 58 53 47 -1
424 0 70 57 54 52 4770
425 0 70 55 53 53 6257
426 0 71 57 43 50 2172
427 0 71 59 42 49 5328
428 0 71 56 41 51 1738
429 0 71 60 42 48 4950
430 0 71 61 41 48 -1
431 0 71 62 43 50 -1
432 0 72 51 30 56 5896
433 0 72 47 31 53 5400
434 0 72 46 34 53 1664
435 0 72 44 36 54 -1
436 0 72 44 40 51 4957
437 0 72 44 39 49 -1
438 0 73 66 44 66 6317
439 0 73 65 46 64 2047
440 0 73 66 46 68 5565
441 0 73 64 43 69 6352
442 0 73 63 44 71 1709
443 0 73 59 46 73 2884
444 0 74 52 38 63 2683
445 0 74 49 37 60 2412
446 0 74 50 34 62 1952
447 0 74 49 35 61 5398
448 0 74 47 34 65 2199
449 0 74 47 36 65 4999
450 0 75 46 39 60 5869
451 0 75 42 38 62 2328
452 0 75 41 37 58 5830
453 0 75 44 36 62 1725
454 0 75 41 40 62 2709
455 0 75 39 40 65 -1
456 0 76 55 57 64 2921
457 0 76 57 59 62 6375
458 0 76 61 57 64 1619
459 0 76 58 55 65 5755
460 0 76 59 56 60 1617
461 0 76 61 56 59 5287
462 0 77 67 24 63 -1
463 0 77 64 28 63 2480
464 0 77 62 29 65 5643
465 0 77 63 33 64 -1
466 0 77 59 32 62 5960
467 0 77 55 30 62 2427
468 0 78 44 35 57 5991
469 0 78 42 36 54 -1
470 0 78 42 31 53 1663
471 0 78 40 34 55 2339
472 0 78 40 34 53 -1
473 0 78 41 37 52 -1
474 0 79 46 35 83 5580
475 0 79 44 32 82 6193
476 0 79 48 30 82 -1
477 0 79 47 28 81 6194
478 0 79 50 25 80 2140
479 0 79 51 26 77 -1
480 0 80 48 28 62 2633
481 0 80 48 31 61 5503
482 0 80 49 32 59 -1
483 0 80 52 33 56 -1
484 0 80 50 30 53 2749
485 0 80 48 29 52 2554
486 0 81 21 21 86 -1
487 0 81 19 22 87 -1
488 0 81 23 19 88 -1
489 0 81 24 20 87 -1
490 0 81 21 20 88 -1
491 0 81 20 24 86 -1
492 0 82 44 52 61 5476
493 0 82 43 56 58 -1
494 0 82 46 55 61 2831
495 0 82 46 51 58 2418
496 0 82 43 49 59 5308
497 0 82 42 52 61 2828
498 0 83 48 61 72 -1
499 0 83 50 57 73 -1
500 0 83 51 57 68 -1
501 0 83 51 55 66 1810
502 0 83 51 53 69 2360
503 0 83 54 52 67 2515
504 0 84 49 75 43 -1
505 0 84 49 73 45 -1
506 0 84 51 71 46 -1
507 0 84 53 70 47 -1
508 0 84 52 74 50 -1
509 0 84 53 77 49 2320
510 0 85 58 48 71 -1
511 0 85 56 48 72 -1
512 0 85 59 50 70 5753
513 0 85 60 53 70 2545
514 0 85 56 54 68 1924
515 0 85 55 59 67 5633
516 0 86 47 27 60 5504
517 0 86 50 25 61 -1
518 0 86 53 27 62 -1
519 0 86 51 27 62 1679
520 0 86 52 25 65 5717
521 0 86 52 25 63 5609
522 0 87 45 59 35 -1
523 0 87 45 60 33 -1
524 0 87 44 61 35 -1
525 0 87 44 62 34 -1
526 0 87 44 62 39 5165
527 0 87 42 64 41 -1
528 0 88 45 55 70 4773
529 0 88 47 55 68 1779
530 0 88 51 52 69 2525
531 0 88 50 49 67 -1
532 0 88 48 50 66 -1
533 0 88 48 52 70 5627
534 0 89 51 35 76 2031
535 0 89 49 38 78 5094
536 0 89 53 37 76 6147
537 0 89 52 38 78 -1
538 0 89 52 37 75 2030
539 0 89 50 41 75 -1
540 0 90 51 35 57 2144
541 0 90 51 35 58 5993
542 0 90 55 34 60 2145
543 0 90 55 33 62 2939
544 0 90 55 33 67 -1
545 0 90 52 34 67 5244
546 0 91 43 28 70 6033
547 0 91 48 27 70 5608
548 0 91 47 28 69 2497
549 0 91 42 27 70 -1
550 0 91 42 28 70 4838
551 0 91 46 30 68 5279
552 0 92 55 60 68 6028
553 0 92 55 60 65 -1
554 0 92 51 57 65 6026
555 0 92 52 60 61 2853
556 0 92 51 58 59 6271
557 0 92 50 59 60 5386
558 0 93 55 42 53 1783
559 0 93 52 44 54 2583
560 0 93 50 43 57 6075
561 0 93 53 42 55 2584
562 0 93 51 46 56 2636
563 0 93 50 47 61 5697
564 0 94 16 16 54 -1
565 0 94 12 15 57 -1
566 0 94 11 14 55 2725
567 0 94 9 14 53 -1
568 0 94 12 13 54 2727
569 0 94 12 12 55 -1
570 0 95 40 90 83 -1
571 0 95 39 90 86 -1
572 0 95 36 91 87 -1
573 0 95 39 90 90 -1
574 0 95 38 85 90 -1
575 0 95 36 82 89 -1
576 0 96 62 52 69 2083
577 0 96 61 48 69 2484
578 0 96 61 46 72 2883
579 0 96 57 44 73 5908
580 0 96 58 45 75 2680
581 0 96 61 45 75 1588
582 0 97 19 99 38 -1
583 0 97 19 94 39 -1
584 0 97 21 97 42 -1
585 0 97 21 97 43 -1
586 0 97 24 97 47 -1
587 0 97 27 95 49 -1
588 0 98 47 32 55 5416
589 0 98 49 36 57 5900
590 0 98 47 34 59 -1
591 0 98 48 35 60 4752
592 0 98 46 33 63 1612
593 0 98 47 34 62 5921
594 0 99 55 58 67 2265
595 0 99 56 55 65 -1
596 0 99 57 55 70 5236
597 0 99 58 55 70 6191
598 0 99 54 52 71 2612
599 0 99 51 51 69 2613
600 0 100 56 41 58 2404
601 0 100 53 45 57 5015
602 0 100 54 42 57 6419
603 0 100 57 46 57 5158
604 0 100 55 44 56 6487
605 0 100 54 41 55 2672
606 0 101 58 42 77 2302
607 0 101 57 39 81 5967
608 0 101 56 38 76 -1
609 0 101 56 35 77 4965
610 0 101 57 39 77 5785
611 0 101 59 38 74 -1
612 0 102 45 52 60 -1
613 0 102 46 53 58 5475
614 0 102 48 49 58 2419
615 0 102 51 48 58 1658
616 0 102 54 48 56 5043
617 0 102 53 49 54 6464
618 0 103 64 43 78 2003
619 0 103 65 41 78 -1
620 0 103 67 43 81 -1
621 0 103 64 44 80 -1
622 0 103 62 40 79 6450
623 0 103 62 41 78 -1
624 0 104 44 49 58 5307
625 0 104 48 51 58 2979
626 0 104 50 53 57 1565
627 0 104 49 57 56 -1
628 0 104 50 54 56 1562
629 0 104 49 54 55 6463
630 0 105 66 42 70 -1
631 0 105 70 44 72 5848
632 0 105 73 45 73 1730
633 0 105 73 46 68 5568
634 0 105 69 46 67 5088
635 0 105 67 43 70 6002
636 0 106 39 36 76 1570
637 0 106 42 40 76 1976
638 0 106 40 40 78 2567
639 0 106 40 41 82 2182
640 0 106 39 42 84 -1
641 0 106 42 45 86 -1
642 0 107 17 71 72 -1
643 0 107 15 71 71 -1
644 0 107 12 71 68 -1
645 0 107 11 73 66 -1
646 0 107 12 72 61 -1
647 0 107 8 71 64 -1
648 0 108 58 27 53 -1
649 0 108 60 29 54 2896
650 0 108 59 28 52 -1
651 0 108 63 30 54 2897
652 0 108 64 27 57 -1
653 0 108 65 26 58 5449
654 0 109 57 49 61 5012
655 0 109 60 50 59 -1
656 0 109 58 51 61 -1
657 0 109 56 50 63 2888
658 0 109 57 51 59 2395
659 0 109 56 50 61 2202
660 0 110 44 33 73 2342
661 0 110 43 31 72 2867
662 0 110 41 33 69 2951
663 0 110 41 36 67 6048
664 0 110 38 35 66 6132
665 0 110 37 32 62 5349
666 0 111 54 40 69 5623
667 0 111 51 39 68 2721
668 0 111 53 37 66 2571
669 0 111 50 40 68 2198
670 0 111 52 42 67 5701
671 0 111 52 45 70 -1
672 0 112 57 32 59 2441
673 0 112 54 31 59 -1
674 0 112 51 30 59 -1
675 0 112 53 32 56 6154
676 0 112 56 32 56 1946
677 0 112 57 35 55 6078
678 0 113 76 29 87 -1
679 0 113 78 31 84 -1
680 0 113 79 28 86 -1
681 0 113 78 31 85 -1
682 0 113 82 31 84 -1
683 0 113 82 35 86 -1
684 0 114 51 46 75 -1
685 0 114 50 47 72 2060
686 0 114 50 52 73 2363
687 0 114 47 50 76 2734
688 0 114 48 52 75 -1
689 0 114 48 55 73 2358
690 0 115 47 55 66 -1
691 0 115 47 55 63 -1
692 0 115 45 57 65 -1
693 0 115 47 57 64 1629
694 0 115 49 59 66 1808
695 0 115 49 56 69 5192
696 0 116 39 32 72 4839
697 0 116 40 37 73 1571
698 0 116 40 35 70 6135
699 0 116 43 34 67 2865
700 0 116 43 32 69 2948
701 0 116 47 31 66 2340
702 0 117 49 63 59 2850
703 0 117 53 63 61 -1
704 0 117 51 61 60 2852
705 0 117 52 57 62 -1
706 0 117 50 59 66 1809
707 0 117 54 58 67 6027
708 0 118 59 45 78 -1
709 0 118 61 43 76 6446
710 0 118 58 43 77 6445
711 0 118 62 45 75 1587
712 0 118 63 40 75 -1
713 0 118 64 39 77 -1
714 0 119 51 47 86 2649
715 0 119 52 48 81 2650
716 0 119 55 47 83 2243
717 0 119 58 46 85 -1
718 0 119 55 49 87 -1
719 0 119 53 51 86 -1
720 0 120 49 35 56 5865
721 0 120 50 38 60 -1
722 0 120 49 36 62 6326
723 0 120 48 34 59 1611
724 0 120 46 32 58 4781
725 0 120 42 33 60 2630
726 0 121 8 15 39 -1
727 0 121 8 10 39 5874
728 0 121 5 9 43 5873
729 0 121 2 10 44 -1
730 0 121 2 12 45 5875
731 0 121 5 15 47 5871
732 0 122 36 41 61 -1
733 0 122 38 41 63 5220
734 0 122 37 44 65 -1
735 0 122 36 40 67 4863
736 0 122 33 38 68 -1
737 0 122 31 40 71 2908
738 0 123 64 49 66 -1
739 0 123 65 50 70 2084
740 0 123 68 48 71 5724
741 0 123 69 45 70 -1
742 0 123 66 42 68 -1
743 0 123 65 43 73 1708
744 0 124 60 56 61 6376
745 0 124 64 54 60 -1
746 0 124 62 56 58 -1
747 0 124 63 60 58 -1
748 0 124 66 61 58 -1
749 0 124 67 58 56 -1
750 0 125 70 21 0 -1
751 0 125 71 23 2 -1
752 0 125 71 25 3 -1
753 0 125 72 25 5 -1
754 0 125 76 28 4 -1
755 0 125 79 32 3 -1
756 0 126 54 24 71 1683
757 0 126 55 27 74 6443
758 0 126 53 27 74 5682
759 0 126 55 28 75 1915
760 0 126 57 28 78 5599
761 0 126 58 29 75 -1
762 0 127 93 11 60 -1
763 0 127 97 12 63 -1
764 0 127 99 15 66 -1
765 0 127 99 11 69 -1
766 0 127 98 9 67 -1
767 0 127 98 12 63 -1
768 0 128 51 50 46 2448
769 0 128 46 50 47 5889
770 0 128 46 51 47 2982
771 0 128 47 53 48 1560
772 0 128 48 57 48 5887
773 0 128 48 52 49 -1
774 0 129 61 22 70 5824
775 0 129 62 25 66 -1
776 0 129 61 29 69 1710
777 0 129 59 27 67 -1
778 0 129 60 27 71 5291
779 0 129 60 24 70 6138
780 0 130 44 50 70 -1
781 0 130 45 46 68 -1
782 0 130 43 42 68 -1
783 0 130 46 40 68 5019
784 0 130 48 40 64 1991
785 0 130 47 37 64 -1
786 0 131 54 66 73 -1
787 0 131 55 67 70 -1
788 0 131 58 66 74 -1
789 0 131 61 62 74 -1
790 0 131 61 60 74 5137
791 0 131 59 61 76 5635
792 0 132 48 47 69 5853
793 0 132 47 44 70 2833
794 0 132 49 43 73 6013
795 0 132 46 42 72 2077
796 0 132 43 40 74 4761
797 0 132 45 40 77 2076
798 0 133 56 31 76 4962
799 0 133 55 28 80 5411
800 0 133 52 28 81 5684
801 0 133 53 25 82 5410
802 0 133 54 27 83 5811
803 0 133 55 25 86 5403
804 0 134 43 30 74 -1
805 0 134 41 29 71 4991
806 0 134 42 29 67 2498
807 0 134 42 26 66 -1
808 0 134 40 30 67 -1
809 0 134 38 30 64 -1
810 0 135 55 45 49 -1
811 0 135 56 45 50 -1
812 0 135 55 47 54 2796
813 0 135 56 46 52 2638
814 0 135 55 45 54 5739
815 0 135 52 42 53 5742
816 0 136 55 55 60 2691
817 0 136 54 58 59 5693
818 0 136 57 54 58 6377
819 0 136 61 57 59 5389
820 0 136 59 55 59 1615
821 0 136 55 57 61 5382
822 0 137 45 39 56 1760
823 0 137 45 36 59 5990
824 0 137 46 36 57 5929
825 0 137 47 35 52 1763
826 0 137 48 30 52 -1
827 0 137 49 33 50 6279
828 0 138 47 53 61 2976
829 0 138 50 54 61 2783
830 0 138 55 53 60 1661
831 0 138 57 53 58 5323
832 0 138 56 49 58 -1
833 0 138 58 50 58 2799
834 0 139 55 36 70 6165
835 0 139 55 37 70 6436
836 0 139 52 37 71 2927
837 0 139 54 40 72 5210
838 0 139 52 38 73 -1
839 0 139 49 39 77 5098
840 0 140 63 53 59 5393
841 0 140 61 52 56 4765
842 0 140 61 52 59 1941
843 0 140 61 47 59 6064
844 0 140 58 51 60 4795
845 0 140 59 55 62 -1
846 0 141 55 48 82 2241
847 0 141 56 50 81 -1
848 0 141 55 50 80 2242
849 0 141 55 47 82 -1
850 0 141 55 47 84 -1
851 0 141 53 47 83 5334
852 0 142 7 40 15 5518
853 0 142 3 38 14 -1
854 0 142 4 41 12 5519
855 0 142 2 38 12 1688
856 0 142 3 37 7 1689
857 0 142 1 34 8 1690
858 0 143 39 55 75 -1
859 0 143 39 57 73 -1
860 0 143 39 62 74 -1
861 0 143 37 65 76 -1
862 0 143 33 63 77 -1
863 0 143 30 64 81 -1
864 0 144 21 91 76 -1
865 0 144 21 91 72 -1
866 0 144 25 89 72 -1
867 0 144 21 87 73 -1
868 0 144 23 88 70 -1
869 0 144 22 87 72 -1
870 0 145 54 26 62 5610
871 0 145 51 23 63 1681
872 0 145 51 22 59 6240
873 0 145 49 20 57 6470
874 0 145 49 20 54 -1
875 0 145 48 20 53 6468
876 0 146 82 31 37 5186
877 0 146 80 31 34 -1
878 0 146 81 33 32 -1
879 0 146 86 34 31 -1
880 0 146 87 33 35 -1
881 0 146 89 30 32 -1
882 0 147 43 33 59 2337
883 0 147 46 33 57 2553
884 0 147 46 29 57 4782
885 0 147 46 27 57 5505
886 0 147 42 26 56 2543
887 0 147 42 25 61 5501
888 0 148 53 47 70 6043
889 0 148 52 45 67 1801
890 0 148 54 47 69 2886
891 0 148 54 51 72 6243
892 0 148 56 55 74 5732
893 0 148 54 53 73 6482
894 0 149 59 28 59 -1
895 0 149 58 28 57 2474
896 0 149 58 31 57 2376
897 0 149 55 29 55 2159
898 0 149 57 31 53 5760
899 0 149 58 32 51 5540
900 0 150 5 77 91 -1
901 0 150 2 76 91 -1
902 0 150 1 77 88 -1
903 0 150 98 74 90 -1
904 0 150 96 72 90 1860
905 0 150 98 70 87 -1
906 0 151 52 42 72 2061
907 0 151 54 40 71 2024
908 0 151 56 39 69 -1
909 0 151 56 41 70 5624
910 0 151 56 40 68 2113
911 0 151 55 41 66 4975
912 0 152 61 27 78 2354
913 0 152 57 30 77 1916
914 0 152 56 32 75 -1
915 0 152 53 33 77 5601
916 0 152 53 37 78 2309
917 0 152 49 35 76 5479
918 0 153 56 32 64 4916
919 0 153 59 31 65 4917
920 0 153 60 33 63 2437
921 0 153 60 36 63 -1
922 0 153 58 35 59 5360
923 0 153 63 36 58 5316
924 0 154 53 25 68 1527
925 0 154 53 29 70 2347
926 0 154 48 28 71 -1
927 0 154 49 26 69 5276
928 0 154 48 23 69 1525
929 0 154 52 24 72 1684
930 0 155 61 40 67 2400
931 0 155 63 41 66 6286
932 0 155 61 39 69 6392
933 0 155 63 40 73 1706
934 0 155 68 41 73 1767
935 0 155 70 45 72 1769
936 0 156 56 32 86 -1
937 0 156 58 35 87 -1
938 0 156 56 32 84 -1
939 0 156 56 33 81 5964
940 0 156 56 30 81 5292
941 0 156 54 28 77 -1
942 0 157 8 55 39 -1
943 0 157 5 53 39 -1
944 0 157 4 56 39 -1
945 0 157 4 55 35 5946
946 0 157 1 56 33 -1
947 0 157 3 55 35 -1
948 0 158 58 57 63 1618
949 0 158 56 53 65 2614
950 0 158 57 54 63 -1
951 0 158 55 56 63 -1
952 0 158 57 55 61 2397
953 0 158 54 57 60 2974
954 0 159 40 37 69 1553
955 0 159 36 39 71 4762
956 0 159 37 38 70 -1
957 0 159 37 38 74 -1
958 0 159 40 39 73 5969
959 0 159 39 37 71 -1
960 0 160 58 46 80 -1
961 0 160 57 47 75 -1
962 0 160 56 44 79 5781
963 0 160 54 47 82 5333
964 0 160 53 42 81 2298
965 0 160 53 37 80 2304
966 0 161 53 36 69 2569
967 0 161 54 38 73 -1
968 0 161 53 38 72 5963
969 0 161 53 40 69 1773
970 0 161 55 40 70 -1
971 0 161 51 38 70 6169
972 0 162 56 41 68 2208
973 0 162 57 40 68 5906
974 0 162 56 40 71 -1
975 0 162 59 41 72 2885
976 0 162 57 39 72 2210
977 0 162 59 40 75 2695
978 0 163 61 43 80 -1
979 0 163 59 45 80 2698
980 0 163 60 46 78 -1
981 0 163 61 44 77 2002
982 0 163 59 48 79 2238
983 0 163 56 47 80 2240
984 0 164 60 53 68 5284
985 0 164 58 54 66 5283
986 0 164 58 54 62 1616
987 0 164 57 53 62 -1
988 0 164 53 52 59 2975
989 0 164 54 54 60 -1
990 0 165 53 52 54 6489
991 0 165 54 52 58 2782
992 0 165 52 51 62 5794
993 0 165 54 51 60 6274
994 0 165 57 51 57 6275
995 0 165 58 47 54 2207
996 0 166 56 57 69 6452
997 0 166 53 54 67 6384
998 0 166 53 52 69 2519
999 0 166 50 54 69 6189
1000 0 166 51 53 64 2779
1001 0 166 50 53 66 2524
1002 0 167 56 26 80 2410
1003 0 167 55 28 84 5591
1004 0 167 53 30 83 5813
1005 0 167 51 30 83 6175
1006 0 167 53 32 84 1752
1007 0 167 53 33 82 -1
1008 0 168 41 34 71 6130
1009 0 168 40 34 72 2392
1010 0 168 39 36 71 6046
1011 0 168 38 37 73 5676
1012 0 168 42 37 70 2866
1013 0 168 40 34 71 -1
1014 0 169 45 36 72 2862
1015 0 169 46 37 72 6023
1016 0 169 44 36 76 1791
1017 0 169 40 35 79 -1
1018 0 169 44 36 82 -1
1019 0 169 42 34 79 4803
1020 0 170 56 41 66 2115
1021 0 170 56 43 66 -1
1022 0 170 55 46 70 1517
1023 0 170 53 48 72 -1
1024 0 170 55 50 68 5911
1025 0 170 55 51 71 2659
1026 0 171 64 41 65 5090
1027 0 171 63 44 63 5563
1028 0 171 62 45 62 2133
1029 0 171 61 45 59 6004
1030 0 171 60 46 56 1736
1031 0 171 60 45 59 6306
1032 0 172 51 38 80 -1
1033 0 172 51 38 78 2915
1034 0 172 53 39 78 5480
1035 0 172 51 37 79 -1
1036 0 172 52 39 76 2212
1037 0 172 53 35 78 -1
1038 0 173 43 36 79 1790
1039 0 173 45 36 78 -1
1040 0 173 42 36 78 4804
1041 0 173 46 39 77 2914
1042 0 173 50 39 76 2308
1043 0 173 52 39 80 5484
1044 0 174 40 30 70 6037
1045 0 174 43 32 71 2341
1046 0 174 45 35 72 2863
1047 0 174 48 31 71 2187
1048 0 174 49 35 69 6096
1049 0 174 46 36 70 -1
1050 0 175 56 33 85 1818
1051 0 175 55 34 80 6359
1052 0 175 55 31 84 5414
1053 0 175 52 33 86 6219
1054 0 175 53 31 87 5812
1055 0 175 54 27 90 -1
1056 0 176 51 50 73 2059
1057 0 176 52 50 70 -1
1058 0 176 49 49 71 -1
1059 0 176 50 50 66 5852
1060 0 176 48 50 64 5046
1061 0 176 48 45 64 -1
1062 0 177 57 38 80 1576
1063 0 177 56 39 78 5962
1064 0 177 60 42 78 2696
1065 0 177 58 45 77 2000
1066 0 177 59 47 81 2697
1067 0 177 58 50 84 -1
1068 0 178 49 35 75 6176
1069 0 178 49 30 76 2993
1070 0 178 47 29 74 6250
1071 0 178 51 30 71 -1
1072 0 178 47 32 69 5242
1073 0 178 51 34 67 2184
1074 0 179 47 29 79 1646
1075 0 179 46 26 76 5983
1076 0 179 45 24 72 5988
1077 0 179 45 27 70 1644
1078 0 179 46 28 72 -1
1079 0 179 46 28 76 5068
1080 0 180 58 12 66 -1
1081 0 180 55 11 66 -1
1082 0 180 55 10 67 -1
1083 0 180 54 10 68 -1
1084 0 180 57 7 69 -1
1085 0 180 59 5 69 6369
1086 0 181 35 27 66 1850
1087 0 181 38 29 67 1851
1088 0 181 38 26 67 1852
1089 0 181 38 28 65 2457
1090 0 181 40 25 68 -1
1091 0 181 42 26 70 -1
1092 0 182 46 31 62 5893
1093 0 182 46 34 63 5512
1094 0 182 48 38 62 2719
1095 0 182 47 35 60 5347
1096 0 182 49 32 63 5396
1097 0 182 50 32 60 6152
1098 0 183 65 35 64 -1
1099 0 183 66 35 62 -1
1100 0 183 68 36 63 1926
1101 0 183 66 34 63 -1
1102 0 183 65 34 65 5792
1103 0 183 63 38 64 5313
1104 0 184 55 51 59 5061
1105 0 184 53 53 61 5816
1106 0 184 49 52 60 5049
1107 0 184 51 54 57 5064
1108 0 184 50 49 57 2118
1109 0 184 48 51 61 1781
1110 0 185 71 41 59 -1
1111 0 185 66 42 59 5311
1112 0 185 63 38 59 2163
1113 0 185 64 40 60 2050
1114 0 185 62 42 64 2008
1115 0 185 63 46 65 -1
1116 0 186 56 46 67 2019
1117 0 186 55 47 70 -1
1118 0 186 53 51 69 6044
1119 0 186 52 52 65 5060
1120 0 186 50 51 64 -1
1121 0 186 54 51 63 2021
1122 0 187 89 17 1 -1
1123 0 187 90 19 99 -1
1124 0 187 90 18 96 -1
1125 0 187 86 18 94 -1
1126 0 187 87 18 96 -1
1127 0 187 84 20 99 -1
1128 0 188 44 38 80 6125
1129 0 188 45 41 81 2181
1130 0 188 42 41 80 1596
1131 0 188 42 43 78 1974
1132 0 188 43 42 74 1567
1133 0 188 46 44 75 2960
1134 0 189 12 43 42 5425
1135 0 189 13 42 43 2738
1136 0 189 15 41 43 2737
1137 0 189 12 42 42 -1
1138 0 189 13 41 46 -1
1139 0 189 14 42 48 -1
1140 0 190 54 50 57 1660
1141 0 190 57 52 57 -1
1142 0 190 56 54 55 2917
1143 0 190 57 56 58 5081
1144 0 190 58 60 61 -1
1145 0 190 61 59 57 1544
1146 0 191 58 49 62 4793
1147 0 191 57 46 59 1656
1148 0 191 54 42 59 2374
1149 0 191 54 40 61 4977
1150 0 191 53 37 60 6076
1151 0 191 57 38 59 2150
1152 0 192 59 31 74 -1
1153 0 192 58 27 73 1685
1154 0 192 53 26 74 1529
1155 0 192 52 25 73 -1
1156 0 192 50 25 73 5687
1157 0 192 51 24 75 1914
1158 0 193 56 34 49 5227
1159 0 193 53 33 51 2748
1160 0 193 49 31 53 5267
1161 0 193 49 31 50 -1
1162 0 193 51 32 47 6180
1163 0 193 50 34 43 5530
1164 0 194 54 41 82 6447
1165 0 194 51 42 79 6335
1166 0 194 50 42 74 2962
1167 0 194 50 41 70 -1
1168 0 194 48 44 71 2196
1169 0 194 47 43 74 2063
1170 0 195 56 51 69 1992
1171 0 195 59 49 70 6000
1172 0 195 56 49 69 5462
1173 0 195 59 45 69 6351
1174 0 195 63 47 70 5273
1175 0 195 62 49 69 5999
1176 0 196 52 43 57 2175
1177 0 196 50 44 59 -1
1178 0 196 50 45 60 5698
1179 0 196 48 46 58 5454
1180 0 196 49 49 60 5077
1181 0 196 54 48 61 -1
1182 0 197 52 27 69 1528
1183 0 197 51 27 65 2460
1184 0 197 48 25 68 5607
1185 0 197 49 29 68 4990
1186 0 197 48 33 66 2201
1187 0 197 46 33 68 1501
1188 0 198 56 36 69 6390
1189 0 198 53 36 68 6435
1190 0 198 49 34 69 5507
1191 0 198 50 38 68 4849
1192 0 198 55 39 67 -1
1193 0 198 52 38 69 -1
1194 0 199 49 28 74 5280
1195 0 199 50 27 77 5602
1196 0 199 53 26 78 5594
1197 0 199 56 24 79 -1
1198 0 199 59 24 83 2406
1199 0 199 59 22 81 -1
1200 0 200 51 61 20 -1
1201 0 200 52 58 18 -1
1202 0 200 51 61 21 1696
1203 0 200 52 62 22 -1
1204 0 200 51 59 19 -1
1205 0 200 49 57 18 -1
1206 0 201 95 9 8 -1
1207 0 201 95 5 9 -1
1208 0 201 95 3 8 -1
1209 0 201 98 3 12 -1
1210 0 201 99 0 10 -1
1211 0 201 94 0 11 -1
1212 0 202 50 29 78 -1
1213 0 202 51 30 79 1757
1214 0 202 46 31 79 6216
1215 0 202 47 30 82 -1
1216 0 202 46 34 80 5837
1217 0 202 46 33 78 6196
1218 0 203 55 41 63 -1
1219 0 203 58 40 61 2403
1220 0 203 58 38 59 -1
1221 0 203 56 39 56 1784
1222 0 203 60 40 54 -1
1223 0 203 57 38 56 1947
1224 0 204 52 58 68 5239
1225 0 204 50 56 66 6030
1226 0 204 49 55 68 2359
1227 0 204 50 55 65 2689
1228 0 204 52 54 64 5305
1229 0 204 51 52 60 -1
1230 0 205 52 31 65 1898
1231 0 205 55 34 67 2152
1232 0 205 54 34 69 4964
1233 0 205 58 33 70 1918
1234 0 205 59 29 69 -1
1235 0 205 57 30 65 -1
1236 0 206 50 27 61 -1
1237 0 206 50 26 57 2644
1238 0 206 47 28 58 5502
1239 0 206 49 27 57 2540
1240 0 206 46 23 56 2542
1241 0 206 47 23 51 -1
1242 0 207 70 44 73 -1
1243 0 207 68 41 75 5147
1244 0 207 66 38 73 -1
1245 0 207 68 38 74 5148
1246 0 207 69 40 74 -1
1247 0 207 70 40 73 5146
1248 0 208 49 48 69 5854
1249 0 208 53 47 72 5208
1250 0 208 54 44 68 5209
1251 0 208 51 43 69 6167
1252 0 208 50 42 66 -1
1253 0 208 50 45 67 -1
1254 0 209 58 44 70 6347
1255 0 209 54 43 71 2509
1256 0 209 54 39 73 5909
1257 0 209 58 40 76 5782
1258 0 209 58 41 79 2303
1259 0 209 58 36 78 -1
1260 0 210 50 29 77 -1
1261 0 210 51 31 75 5683
1262 0 210 51 30 72 6140
1263 0 210 49 26 74 2811
1264 0 210 49 26 76 -1
1265 0 210 49 25 74 2812
1266 0 211 40 73 20 -1
1267 0 211 38 75 22 -1
1268 0 211 42 72 22 6413
1269 0 211 44 68 22 -1
1270 0 211 47 68 20 -1
1271 0 211 49 66 24 -1
1272 0 212 48 37 48 1762
1273 0 212 48 40 52 5743
1274 0 212 49 39 53 2091
1275 0 212 48 34 54 2107
1276 0 212 49 34 53 5864
1277 0 212 50 36 50 2753
1278 0 213 52 39 56 2174
1279 0 213 51 42 60 -1
1280 0 213 48 41 60 5453
1281 0 213 50 38 61 2718
1282 0 213 49 40 65 5509
1283 0 213 49 39 65 2720
1284 0 214 39 57 89 -1
1285 0 214 41 58 88 -1
1286 0 214 43 56 84 5213
1287 0 214 42 52 83 5215
1288 0 214 41 55 85 2064
1289 0 214 40 58 87 -1
1290 0 215 51 59 63 1922
1291 0 215 52 55 64 2615
1292 0 215 52 53 60 2973
1293 0 215 53 56 56 5063
1294 0 215 53 57 60 5039
1295 0 215 53 55 64 6029
1296 0 216 50 27 76 -1
1297 0 216 47 27 78 2596
1298 0 216 45 31 77 2597
1299 0 216 49 29 75 6139
1300 0 216 51 32 76 2923
1301 0 216 53 28 76 -1
1302 0 217 45 44 69 5356
1303 0 217 48 44 69 -1
1304 0 217 46 46 67 -1
1305 0 217 44 48 70 1606
1306 0 217 44 45 73 2832