ITEM: TIMESTEP
0
ITEM: NUMBER OF ATOMS
6000
ITEM: BOX BOUNDS pp pp pp
0 100
0 100
0 100
ITEM: ATOMS id type mol x y z bP
0 0 0 49 90 10 -1
1 0 0 48 92 9 -1
2 0 0 49 91 8 -1
3 0 0 49 90 12 -1
4 0 0 47 88 14 -1
5 0 1 65 98 64 -1
6 0 1 63 1 61 -1
7 0 1 61 0 65 -1
8 0 1 61 99 66 -1
9 0 1 64 96 68 2459
10 0 2 57 51 93 -1
11 0 2 57 50 96 -1
12 0 2 59 48 94 -1
13 0 2 56 46 91 -1
14 0 2 59 46 90 -1
15 0 3 89 12 1 2300
16 0 3 88 10 4 -1
17 0 3 89 10 0 -1
18 0 3 86 8 98 -1
19 0 3 84 9 0 -1
20 0 4 72 75 80 -1
21 0 4 74 77 78 -1
22 0 4 75 79 75 -1
23 0 4 74 80 70 -1
24 0 4 73 78 70 -1
25 0 5 6 60 1 -1
26 0 5 8 58 5 4564
27 0 5 12 58 4 -1
28 0 5 10 54 3 -1
29 0 5 10 57 6 -1
30 0 6 46 35 23 -1
31 0 6 43 35 25 -1
32 0 6 41 36 21 -1
33 0 6 41 39 19 -1
34 0 6 38 36 20 -1
35 0 7 69 90 23 -1
36 0 7 68 87 26 -1
37 0 7 67 90 29 1325
38 0 7 68 94 27 1326
39 0 7 66 93 27 -1
40 0 8 93 49 6 -1
41 0 8 98 50 7 -1
42 0 8 96 53 6 -1
43 0 8 95 51 4 -1
44 0 8 94 50 0 -1
45 0 9 90 55 49 -1
46 0 9 93 56 45 -1
47 0 9 92 60 42 4792
48 0 9 90 61 46 4791
49 0 9 87 63 48 -1
50 0 10 42 59 39 1801
51 0 10 42 56 35 -1
52 0 10 40 53 34 -1
53 0 10 44 51 35 -1
54 0 10 47 54 35 5782
55 0 11 27 43 1 -1
56 0 11 27 39 99 -1
57 0 11 26 39 3 -1
58 0 11 25 35 4 -1
59 0 11 22 34 5 5508
60 0 12 80 44 5 2377
61 0 12 76 44 8 2379
62 0 12 76 46 5 -1
63 0 12 73 45 8 -1
64 0 12 69 45 6 -1
65 0 13 29 78 80 2201
66 0 13 29 78 79 -1
67 0 13 32 76 82 -1
68 0 13 34 77 85 -1
69 0 13 33 76 81 -1
70 0 14 18 20 8 -1
71 0 14 21 20 10 -1
72 0 14 25 20 10 -1
73 0 14 23 22 12 -1
74 0 14 21 19 14 -1
75 0 15 87 29 42 -1
76 0 15 88 32 38 -1
77 0 15 85 36 38 -1
78 0 15 84 32 38 -1
79 0 15 81 29 36 -1
80 0 16 77 66 2 1296
81 0 16 80 64 4 -1
82 0 16 79 63 6 -1
83 0 16 78 60 10 4263
84 0 16 78 63 13 -1
85 0 17 26 57 9 -1
86 0 17 29 57 11 -1
87 0 17 30 62 10 -1
88 0 17 26 62 11 2309
89 0 17 28 61 11 4421
90 0 18 55 64 19 -1
91 0 18 53 63 18 -1
92 0 18 57 66 19 -1
93 0 18 56 63 19 -1
94 0 18 58 61 21 -1
95 0 19 70 82 68 -1
96 0 19 72 84 64 5831
97 0 19 76 81 63 -1
98 0 19 77 81 66 5285
99 0 19 77 83 68 -1
100 0 20 94 62 3 -1
101 0 20 91 64 5 -1
102 0 20 90 69 6 -1
103 0 20 86 70 5 -1
104 0 20 87 69 3 -1
105 0 21 47 94 42 -1
106 0 21 47 89 42 5294
107 0 21 49 90 43 -1
108 0 21 47 92 45 -1
109 0 21 45 94 47 -1
110 0 22 36 80 73 -1
111 0 22 34 80 72 -1
112 0 22 37 83 74 2073
113 0 22 38 78 73 -1
114 0 22 36 82 72 -1
115 0 23 34 5 3 -1
116 0 23 32 3 6 -1
117 0 23 33 2 11 -1
118 0 23 30 99 12 -1
119 0 23 29 0 10 -1
120 0 24 73 83 79 -1
121 0 24 71 81 79 -1
122 0 24 70 77 79 -1
123 0 24 66 80 80 5943
124 0 24 69 84 79 -1
125 0 25 88 43 40 5064
126 0 25 90 43 42 -1
127 0 25 91 48 42 -1
128 0 25 91 48 41 -1
129 0 25 88 49 38 -1
130 0 26 93 63 49 -1
131 0 26 90 62 48 -1
132 0 26 91 65 46 -1
133 0 26 88 65 44 -1
134 0 26 90 64 42 -1
135 0 27 23 57 63 -1
136 0 27 21 54 62 -1
137 0 27 24 51 63 -1
138 0 27 19 52 62 4989
139 0 27 17 48 63 5235
140 0 28 39 51 53 -1
141 0 28 35 52 53 -1
142 0 28 36 52 53 -1
143 0 28 32 54 55 -1
144 0 28 32 55 56 -1
145 0 29 62 70 61 -1
146 0 29 61 68 61 -1
147 0 29 60 71 64 -1
148 0 29 61 70 60 -1
149 0 29 59 73 59 -1
150 0 30 47 22 36 -1
151 0 30 49 23 39 -1
152 0 30 47 21 38 -1
153 0 30 44 23 40 -1
154 0 30 47 23 41 -1
155 0 31 64 67 38 4787
156 0 31 66 70 40 -1
157 0 31 66 71 44 -1
158 0 31 67 71 39 -1
159 0 31 68 70 38 -1
160 0 32 57 76 47 -1
161 0 32 57 74 45 -1
162 0 32 58 74 50 -1
163 0 32 59 78 48 -1
164 0 32 58 80 48 -1
165 0 33 31 6 93 -1
166 0 33 29 5 91 -1
167 0 33 26 3 92 -1
168 0 33 30 5 90 -1
169 0 33 29 8 90 -1
170 0 34 86 77 1 -1
171 0 34 84 76 98 -1
172 0 34 83 77 93 -1
173 0 34 82 76 94 -1
174 0 34 86 74 92 -1
175 0 35 97 44 44 -1
176 0 35 97 48 41 -1
177 0 35 96 46 40 -1
178 0 35 93 45 36 -1
179 0 35 95 42 35 5981
180 0 36 84 72 91 -1
181 0 36 79 72 91 5679
182 0 36 83 72 91 -1
183 0 36 85 69 90 -1
184 0 36 88 71 89 -1
185 0 37 65 90 54 -1
186 0 37 66 87 54 -1
187 0 37 68 91 53 -1
188 0 37 69 89 57 -1
189 0 37 66 87 55 1650
190 0 38 96 2 47 -1
191 0 38 99 98 46 -1
192 0 38 3 1 46 -1
193 0 38 3 3 46 -1
194 0 38 5 3 47 -1
195 0 39 24 29 94 -1
196 0 39 27 29 91 4365
197 0 39 26 25 91 -1
198 0 39 29 24 88 4364
199 0 39 30 28 90 4485
200 0 40 54 89 44 -1
201 0 40 54 87 41 -1
202 0 40 51 88 43 -1
203 0 40 52 92 43 5296
204 0 40 47 93 42 5298
205 0 41 44 50 85 -1
206 0 41 42 49 82 -1
207 0 41 45 49 78 -1
208 0 41 44 47 81 -1
209 0 41 41 48 80 -1
210 0 42 32 33 21 -1
211 0 42 32 29 19 -1
212 0 42 31 32 20 -1
213 0 42 28 33 18 -1
214 0 42 28 29 21 -1
215 0 43 54 67 35 -1
216 0 43 55 70 38 -1
217 0 43 59 70 40 -1
218 0 43 60 70 40 -1
219 0 43 60 66 41 1363
220 0 44 57 14 63 -1
221 0 44 59 13 67 -1
222 0 44 63 13 66 2420
223 0 44 65 9 64 -1
224 0 44 62 10 60 -1
225 0 45 75 57 75 -1
226 0 45 70 56 75 -1
227 0 45 67 54 78 -1
228 0 45 70 50 79 -1
229 0 45 69 47 81 -1
230 0 46 99 18 50 -1
231 0 46 1 19 49 -1
232 0 46 4 21 49 -1
233 0 46 0 23 47 -1
234 0 46 97 24 48 -1
235 0 47 79 25 83 -1
236 0 47 77 28 80 -1
237 0 47 81 31 80 -1
238 0 47 81 29 78 2154
239 0 47 76 29 78 -1
240 0 48 40 62 24 5864
241 0 48 42 65 25 -1
242 0 48 42 60 25 -1
243 0 48 40 57 23 -1
244 0 48 40 56 26 -1
245 0 49 94 64 43 -1
246 0 49 93 61 44 -1
247 0 49 96 61 47 -1
248 0 49 98 59 44 -1
249 0 49 99 55 44 -1
250 0 50 51 40 13 -1
251 0 50 51 39 13 -1
252 0 50 52 40 8 -1
253 0 50 50 38 9 4510
254 0 50 50 39 7 -1
255 0 51 34 9 35 -1
256 0 51 35 8 34 -1
257 0 51 31 8 32 -1
258 0 51 32 10 36 -1
259 0 51 34 12 33 -1
260 0 52 39 8 36 -1
261 0 52 37 11 39 -1
262 0 52 36 13 36 -1
263 0 52 35 9 36 -1
264 0 52 34 13 36 -1
265 0 53 18 47 50 -1
266 0 53 21 50 53 5194
267 0 53 23 54 55 -1
268 0 53 23 50 58 -1
269 0 53 25 52 60 -1
270 0 54 99 40 32 -1
271 0 54 96 37 33 -1
272 0 54 94 40 35 -1
273 0 54 93 43 36 -1
274 0 54 96 39 37 -1
275 0 55 49 83 89 5583
276 0 55 48 78 88 4504
277 0 55 48 83 89 -1
278 0 55 49 83 91 -1
279 0 55 51 82 91 -1
280 0 56 51 78 40 -1
281 0 56 51 76 37 -1
282 0 56 49 78 36 -1
283 0 56 50 74 33 -1
284 0 56 49 72 31 -1
285 0 57 52 40 98 -1
286 0 57 50 41 99 5383
287 0 57 48 40 96 -1
288 0 57 44 39 96 -1
289 0 57 42 40 98 -1
290 0 58 78 89 36 -1
291 0 58 79 84 37 -1
292 0 58 81 81 35 -1
293 0 58 77 80 36 -1
294 0 58 80 83 36 -1
295 0 59 92 82 41 5772
296 0 59 91 85 39 -1
297 0 59 93 82 36 -1
298 0 59 90 82 35 -1
299 0 59 93 82 39 -1
300 0 60 29 98 56 -1
301 0 60 29 0 58 -1
302 0 60 27 99 61 -1
303 0 60 32 99 62 -1
304 0 60 32 2 60 -1
305 0 61 68 31 32 -1
306 0 61 69 28 30 -1
307 0 61 72 30 32 2155
308 0 61 71 33 36 -1
309 0 61 74 34 36 -1
310 0 62 34 41 13 -1
311 0 62 32 42 12 -1
312 0 62 35 41 12 -1
313 0 62 34 40 14 2338
314 0 62 32 43 15 -1
315 0 63 80 15 39 5918
316 0 63 82 11 40 -1
317 0 63 83 12 37 5600
318 0 63 84 15 36 -1
319 0 63 82 11 36 -1
320 0 64 28 43 56 -1
321 0 64 29 45 54 -1
322 0 64 32 49 55 -1
323 0 64 29 45 55 -1
324 0 64 27 46 57 -1
325 0 65 35 1 44 -1
326 0 65 33 99 43 -1
327 0 65 33 99 45 -1
328 0 65 33 2 44 -1
329 0 65 35 1 42 -1
330 0 66 58 84 15 -1
331 0 66 58 87 15 5254
332 0 66 56 90 16 -1
333 0 66 54 92 19 -1
334 0 66 52 96 17 -1
335 0 67 75 40 74 -1
336 0 67 76 37 70 -1
337 0 67 76 32 71 2151
338 0 67 78 30 67 -1
339 0 67 75 31 64 -1
340 0 68 74 8 51 -1
341 0 68 72 9 50 -1
342 0 68 73 8 50 2365
343 0 68 72 11 48 -1
344 0 68 72 12 49 5026
345 0 69 35 84 52 1928
346 0 69 34 89 52 -1
347 0 69 33 85 49 -1
348 0 69 30 86 51 -1
349 0 69 33 89 53 1927
350 0 70 33 29 84 -1
351 0 70 31 26 81 -1
352 0 70 32 31 82 -1
353 0 70 31 33 82 -1
354 0 70 28 30 82 -1
355 0 71 7 86 77 -1
356 0 71 5 86 74 -1
357 0 71 8 88 74 -1
358 0 71 10 90 72 -1
359 0 71 5 90 71 -1
360 0 72 84 50 7 -1
361 0 72 87 48 5 -1
362 0 72 87 49 7 5869
363 0 72 90 48 11 -1
364 0 72 89 43 11 -1
365 0 73 1 43 11 -1
366 0 73 2 43 16 -1
367 0 73 6 43 15 -1
368 0 73 7 47 14 -1
369 0 73 9 50 15 -1
370 0 74 61 11 55 -1
371 0 74 57 9 54 -1
372 0 74 58 12 57 -1
373 0 74 58 8 59 -1
374 0 74 60 7 62 -1
375 0 75 40 14 78 -1
376 0 75 41 11 81 -1
377 0 75 42 11 79 -1
378 0 75 41 7 77 -1
379 0 75 44 9 78 1502
380 0 76 15 58 80 -1
381 0 76 13 61 77 -1
382 0 76 12 64 79 -1
383 0 76 10 63 80 -1
384 0 76 12 62 82 -1
385 0 77 55 11 87 -1
386 0 77 57 11 86 -1
387 0 77 58 14 85 -1
388 0 77 58 10 82 -1
389 0 77 60 10 86 -1
390 0 78 95 27 31 -1
391 0 78 94 24 27 -1
392 0 78 94 28 24 -1
393 0 78 93 29 26 -1
394 0 78 91 27 25 -1
395 0 79 91 28 60 -1
396 0 79 89 26 60 5906
397 0 79 90 25 65 -1
398 0 79 92 27 69 -1
399 0 79 92 23 68 -1
400 0 80 46 97 16 -1
401 0 80 49 99 14 -1
402 0 80 50 1 10 -1
403 0 80 49 1 5 -1
404 0 80 54 1 6 -1
405 0 81 60 0 79 -1
406 0 81 61 4 77 -1
407 0 81 58 4 75 2454
408 0 81 57 5 79 -1
409 0 81 56 1 81 -1
410 0 82 7 30 75 -1
411 0 82 5 31 71 4550
412 0 82 7 32 70 -1
413 0 82 10 31 67 1678
414 0 82 7 29 70 -1
415 0 83 0 82 0 -1
416 0 83 0 84 3 -1
417 0 83 98 81 3 -1
418 0 83 96 83 2 -1
419 0 83 95 82 97 4360
420 0 84 93 67 54 -1
421 0 84 92 65 51 -1
422 0 84 90 66 49 -1
423 0 84 93 67 52 -1
424 0 84 93 66 54 -1
425 0 85 63 93 50 -1
426 0 85 67 93 48 -1
427 0 85 66 97 49 -1
428 0 85 62 97 51 -1
429 0 85 62 98 51 -1
430 0 86 58 20 53 -1
431 0 86 57 15 54 -1
432 0 86 59 16 53 -1
433 0 86 58 17 52 -1
434 0 86 58 15 53 -1
435 0 87 38 31 73 -1
436 0 87 40 32 69 -1
437 0 87 40 30 66 -1
438 0 87 41 31 61 -1
439 0 87 42 29 59 -1
440 0 88 67 76 43 -1
441 0 88 64 78 44 -1
442 0 88 65 79 46 4751
443 0 88 64 75 48 -1
444 0 88 67 75 46 -1
445 0 89 53 36 0 1625
446 0 89 51 35 4 1751
447 0 89 50 37 0 -1
448 0 89 48 37 1 -1
449 0 89 46 33 0 1750
450 0 90 92 52 84 2106
451 0 90 94 49 86 -1
452 0 90 98 48 86 -1
453 0 90 2 47 83 -1
454 0 90 1 47 80 -1
455 0 91 90 65 46 -1
456 0 91 93 63 48 -1
457 0 91 93 65 52 -1
458 0 91 95 64 49 -1
459 0 91 95 65 46 -1
460 0 92 29 92 74 -1
461 0 92 25 91 77 4714
462 0 92 26 95 79 -1
463 0 92 30 96 78 -1
464 0 92 29 97 76 -1
465 0 93 21 71 61 -1
466 0 93 21 71 59 -1
467 0 93 16 72 59 5123
468 0 93 17 69 63 -1
469 0 93 16 70 65 -1
470 0 94 68 98 66 -1
471 0 94 68 2 68 -1
472 0 94 71 1 70 -1
473 0 94 66 1 71 -1
474 0 94 70 1 72 -1
475 0 95 76 95 48 -1
476 0 95 76 98 46 -1
477 0 95 76 94 46 -1
478 0 95 78 92 42 -1
479 0 95 78 90 42 1674
480 0 96 95 60 1 -1
481 0 96 95 59 5 -1
482 0 96 99 61 3 4843
483 0 96 95 60 0 4840
484 0 96 91 61 97 5950
485 0 97 3 83 73 -1
486 0 97 5 80 75 -1
487 0 97 9 80 77 -1
488 0 97 10 79 73 -1
489 0 97 7 81 73 -1
490 0 98 47 7 73 -1
491 0 98 45 7 74 -1
492 0 98 42 8 70 -1
493 0 98 44 6 73 1503
494 0 98 48 6 71 -1
495 0 99 40 55 31 -1
496 0 99 44 53 33 5267
497 0 99 44 55 32 5781
498 0 99 43 53 31 -1
499 0 99 44 52 34 -1
500 0 100 99 75 78 -1
501 0 100 2 75 82 -1
502 0 100 99 78 83 -1
503 0 100 0 80 80 -1
504 0 100 98 83 82 -1
505 0 101 10 16 25 -1
506 0 101 9 13 28 -1
507 0 101 10 10 25 -1
508 0 101 11 9 27 -1
509 0 101 10 12 27 -1
510 0 102 89 52 34 -1
511 0 102 88 48 36 -1
512 0 102 87 47 35 -1
513 0 102 86 46 36 -1
514 0 102 88 47 37 -1
515 0 103 61 72 78 -1
516 0 103 63 70 77 -1
517 0 103 63 69 79 -1
518 0 103 62 65 76 -1
519 0 103 61 64 71 -1
520 0 104 33 42 82 -1
521 0 104 37 42 82 -1
522 0 104 41 40 83 -1
523 0 104 42 39 83 -1
524 0 104 45 38 86 -1
525 0 105 40 40 17 1421
526 0 105 37 43 15 1413
527 0 105 39 44 17 -1
528 0 105 41 42 15 -1
529 0 105 37 39 15 -1
530 0 106 80 0 96 4872
531 0 106 77 99 96 -1
532 0 106 76 1 97 -1
533 0 106 78 3 0 -1
534 0 106 77 6 98 1871
535 0 107 75 11 0 -1
536 0 107 76 15 3 -1
537 0 107 77 14 98 -1
538 0 107 76 12 96 -1
539 0 107 73 13 92 -1
540 0 108 37 97 25 -1
541 0 108 33 94 26 -1
542 0 108 32 93 31 -1
543 0 108 35 96 32 -1
544 0 108 38 93 33 -1
545 0 109 86 18 63 -1
546 0 109 87 18 65 -1
547 0 109 92 17 66 -1
548 0 109 93 15 68 -1
549 0 109 96 15 71 1486
550 0 110 12 80 3 -1
551 0 110 12 75 2 -1
552 0 110 13 80 3 -1
553 0 110 13 82 2 -1
554 0 110 8 83 1 -1
555 0 111 78 30 76 2153
556 0 111 80 28 78 -1
557 0 111 77 31 77 -1
558 0 111 81 33 75 5987
559 0 111 83 36 72 -1
560 0 112 52 6 42 -1
561 0 112 52 10 41 -1
562 0 112 57 11 42 -1
563 0 112 56 10 43 -1
564 0 112 60 10 40 -1
565 0 113 52 81 37 -1
566 0 113 49 79 35 -1
567 0 113 52 75 34 -1
568 0 113 53 74 36 -1
569 0 113 53 75 37 -1
570 0 114 86 3 77 1542
571 0 114 84 4 80 1853
572 0 114 81 3 78 -1
573 0 114 79 0 77 -1
574 0 114 80 98 78 -1
575 0 115 24 83 81 -1
576 0 115 26 87 79 4713
577 0 115 21 88 78 -1
578 0 115 23 85 76 -1
579 0 115 26 84 80 5261
580 0 116 87 70 91 4555
581 0 116 89 72 90 4556
582 0 116 89 72 94 -1
583 0 116 87 70 96 -1
584 0 116 87 75 97 -1
585 0 117 0 59 35 -1
586 0 117 1 57 32 -1
587 0 117 3 59 30 -1
588 0 117 5 57 33 -1
589 0 117 4 52 34 -1
590 0 118 99 36 92 -1
591 0 118 99 39 94 5593
592 0 118 2 36 96 -1
593 0 118 99 36 98 5588
594 0 118 1 35 0 -1
595 0 119 46 94 91 -1
596 0 119 46 92 92 -1
597 0 119 49 96 92 -1
598 0 119 49 99 88 -1
599 0 119 49 1 88 -1
600 0 120 13 4 79 -1
601 0 120 12 4 76 -1
602 0 120 14 5 76 -1
603 0 120 17 5 74 4949
604 0 120 15 7 72 4947
605 0 121 6 57 8 -1
606 0 121 6 60 9 -1
607 0 121 4 61 10 -1
608 0 121 1 61 14 -1
609 0 121 5 61 17 -1
610 0 122 61 60 78 -1
611 0 122 56 60 78 -1
612 0 122 53 64 78 -1
613 0 122 51 62 78 -1
614 0 122 52 58 77 -1
615 0 123 42 94 95 -1
616 0 123 45 95 93 -1
617 0 123 50 95 92 -1
618 0 123 47 97 93 2207
619 0 123 44 94 90 -1
620 0 124 45 35 26 -1
621 0 124 44 30 27 -1
622 0 124 41 29 25 -1
623 0 124 44 27 27 -1
624 0 124 48 27 30 -1
625 0 125 51 45 9 -1
626 0 125 52 43 10 -1
627 0 125 47 44 11 -1
628 0 125 50 46 11 -1
629 0 125 48 45 13 -1
630 0 126 99 14 45 -1
631 0 126 97 11 46 -1
632 0 126 99 10 44 -1
633 0 126 96 12 41 5719
634 0 126 98 10 44 -1
635 0 127 9 19 48 4442
636 0 127 11 19 45 -1
637 0 127 9 15 45 -1
638 0 127 7 18 48 -1
639 0 127 7 20 45 -1
640 0 128 22 41 71 -1
641 0 128 19 44 74 -1
642 0 128 22 47 71 -1
643 0 128 25 47 72 -1
644 0 128 29 46 73 -1
645 0 129 64 77 76 -1
646 0 129 61 75 73 -1
647 0 129 62 74 73 -1
648 0 129 63 77 70 -1
649 0 129 67 77 71 -1
650 0 130 79 90 70 -1
651 0 130 80 89 69 -1
652 0 130 80 88 67 -1
653 0 130 80 89 71 2344
654 0 130 84 90 69 -1
655 0 131 96 26 74 -1
656 0 131 98 25 71 -1
657 0 131 99 21 74 -1
658 0 131 0 22 69 -1
659 0 131 99 24 67 -1
660 0 132 61 89 33 -1
661 0 132 60 85 34 -1
662 0 132 63 84 34 5096
663 0 132 65 86 33 -1
664 0 132 63 85 33 -1
665 0 133 78 23 51 -1
666 0 133 75 23 47 -1
667 0 133 75 21 48 -1
668 0 133 75 19 49 -1
669 0 133 80 20 48 -1
670 0 134 40 45 20 1410
671 0 134 39 44 18 -1
672 0 134 38 47 18 -1
673 0 134 34 45 17 -1
674 0 134 33 45 16 -1
675 0 135 11 51 24 -1
676 0 135 10 52 23 -1
677 0 135 11 50 22 -1
678 0 135 8 52 19 -1
679 0 135 10 54 20 -1
680 0 136 56 81 73 4316
681 0 136 59 78 71 -1
682 0 136 61 78 73 -1
683 0 136 58 75 74 -1
684 0 136 58 75 75 -1
685 0 137 56 77 77 -1
686 0 137 57 79 76 -1
687 0 137 58 76 77 -1
688 0 137 59 79 73 -1
689 0 137 62 77 70 4315
690 0 138 21 37 33 -1
691 0 138 20 40 30 -1
692 0 138 22 38 33 -1
693 0 138 23 38 36 -1
694 0 138 23 35 34 -1
695 0 139 50 52 59 -1
696 0 139 54 54 58 5970
697 0 139 49 54 59 -1
698 0 139 52 55 56 -1
699 0 139 51 54 56 -1
700 0 140 31 49 16 -1
701 0 140 29 52 16 -1
702 0 140 25 54 15 -1
703 0 140 24 56 15 -1
704 0 140 23 52 14 -1
705 0 141 73 46 31 -1
706 0 141 74 48 33 -1
707 0 141 71 49 34 -1
708 0 141 68 49 35 5675
709 0 141 65 47 33 -1
710 0 142 11 53 82 -1
711 0 142 9 54 84 5721
712 0 142 7 55 81 -1
713 0 142 5 58 84 -1
714 0 142 7 57 85 -1
715 0 143 49 47 37 -1
716 0 143 50 49 36 -1
717 0 143 50 50 39 -1
718 0 143 52 51 43 -1
719 0 143 48 52 42 -1
720 0 144 23 32 70 -1
721 0 144 21 32 68 -1
722 0 144 24 34 68 -1
723 0 144 22 34 64 -1
724 0 144 22 30 66 -1
725 0 145 94 89 83 5385
726 0 145 92 88 84 5644
727 0 145 91 85 87 -1
728 0 145 93 87 85 -1
729 0 145 93 88 86 5645
730 0 146 2 47 61 5152
731 0 146 2 45 62 -1
732 0 146 99 48 64 -1
733 0 146 97 47 61 5147
734 0 146 97 48 60 -1
735 0 147 7 40 64 -1
736 0 147 9 40 67 -1
737 0 147 6 39 63 -1
738 0 147 6 42 62 -1
739 0 147 7 40 65 -1
740 0 148 29 88 92 -1
741 0 148 29 89 95 -1
742 0 148 33 91 93 -1
743 0 148 35 88 95 -1
744 0 148 36 89 99 -1
745 0 149 33 55 14 -1
746 0 149 33 55 13 -1
747 0 149 32 51 11 -1
748 0 149 33 46 12 -1
749 0 149 31 50 12 -1
750 0 150 13 75 27 -1
751 0 150 11 75 29 -1
752 0 150 13 71 30 -1
753 0 150 12 70 33 -1
754 0 150 7 69 33 -1
755 0 151 98 51 43 -1
756 0 151 0 51 43 -1
757 0 151 99 50 42 -1
758 0 151 98 48 38 -1
759 0 151 96 45 39 -1
760 0 152 74 11 99 -1
761 0 152 75 9 0 -1
762 0 152 76 10 97 -1
763 0 152 73 9 95 1870
764 0 152 74 9 92 1589
765 0 153 87 87 4 2386
766 0 153 87 87 2 2388
767 0 153 87 85 3 2060
768 0 153 85 88 3 2063
769 0 153 87 91 3 -1
770 0 154 59 46 10 -1
771 0 154 60 47 9 -1
772 0 154 57 43 9 -1
773 0 154 57 45 12 -1
774 0 154 61 43 10 2149
775 0 155 63 48 39 -1
776 0 155 66 50 36 -1
777 0 155 63 48 35 -1
778 0 155 62 47 36 -1
779 0 155 65 45 33 5674
780 0 156 7 81 39 -1
781 0 156 8 78 35 -1
782 0 156 6 79 38 -1
783 0 156 4 76 40 -1
784 0 156 2 76 38 4477
785 0 157 13 60 15 -1
786 0 157 16 64 14 -1
787 0 157 15 65 16 -1
788 0 157 19 63 16 2307
789 0 157 24 63 17 -1
790 0 158 2 70 90 -1
791 0 158 3 69 85 4254
792 0 158 5 68 85 4253
793 0 158 4 69 81 -1
794 0 158 3 65 83 -1
795 0 159 74 24 45 -1
796 0 159 72 24 47 5183
797 0 159 74 24 49 5184
798 0 159 74 22 46 -1
799 0 159 70 19 45 -1
800 0 160 41 90 3 2019
801 0 160 43 90 6 -1
802 0 160 46 90 9 -1
803 0 160 44 94 11 -1
804 0 160 45 94 10 -1
805 0 161 17 83 77 -1
806 0 161 17 83 75 -1
807 0 161 20 81 75 5259
808 0 161 17 83 74 -1
809 0 161 20 84 75 -1
810 0 162 95 81 27 -1
811 0 162 95 82 31 -1
812 0 162 94 81 28 1310
813 0 162 91 79 25 -1
814 0 162 88 80 25 -1
815 0 163 64 84 67 -1
816 0 163 65 85 68 -1
817 0 163 66 84 71 2023
818 0 163 66 81 72 2021
819 0 163 61 80 73 4319
820 0 164 78 9 38 -1
821 0 164 77 8 41 -1
822 0 164 78 11 38 -1
823 0 164 81 12 38 5917
824 0 164 80 11 42 -1
825 0 165 52 88 30 -1
826 0 165 50 88 31 -1
827 0 165 49 87 32 1722
828 0 165 46 89 34 -1
829 0 165 44 90 30 -1
830 0 166 47 89 76 -1
831 0 166 48 87 72 2396
832 0 166 50 89 71 2317
833 0 166 50 91 67 -1
834 0 166 51 90 68 -1
835 0 167 51 60 64 -1
836 0 167 50 59 63 -1
837 0 167 53 55 64 -1
838 0 167 52 54 59 5969
839 0 167 51 55 57 -1
840 0 168 51 84 24 -1
841 0 168 51 81 26 -1
842 0 168 54 78 28 -1
843 0 168 53 75 29 -1
844 0 168 57 73 27 -1
845 0 169 19 27 59 -1
846 0 169 19 26 59 -1
847 0 169 19 30 60 -1
848 0 169 19 30 57 1897
849 0 169 21 33 54 1899
850 0 170 46 30 94 -1
851 0 170 46 31 92 -1
852 0 170 43 32 92 -1
853 0 170 44 35 90 -1
854 0 170 46 33 91 -1
855 0 171 31 70 45 -1
856 0 171 30 67 48 1443
857 0 171 32 70 47 -1
858 0 171 36 69 48 -1
859 0 171 32 68 46 5666
860 0 172 78 67 21 -1
861 0 172 79 70 20 -1
862 0 172 82 70 21 -1
863 0 172 79 73 19 -1
864 0 172 81 76 20 -1
865 0 173 76 70 3 -1
866 0 173 73 73 6 -1
867 0 173 75 72 5 -1
868 0 173 74 71 6 -1
869 0 173 73 69 7 -1
870 0 174 57 36 0 5550
871 0 174 54 40 0 -1
872 0 174 54 40 2 -1
873 0 174 54 36 2 -1
874 0 174 57 35 3 5549
875 0 175 32 70 12 -1
876 0 175 32 66 9 -1
877 0 175 33 65 12 -1
878 0 175 33 67 9 -1
879 0 175 32 66 6 -1
880 0 176 36 82 43 -1
881 0 176 34 84 43 -1
882 0 176 39 84 44 -1
883 0 176 39 86 46 -1
884 0 176 36 83 46 -1
885 0 177 78 80 39 -1
886 0 177 80 81 37 -1
887 0 177 79 81 33 -1
888 0 177 77 84 32 -1
889 0 177 79 85 29 -1
890 0 178 21 46 21 -1
891 0 178 20 45 18 -1
892 0 178 18 43 19 5472
893 0 178 19 47 18 -1
894 0 178 21 45 15 -1
895 0 179 76 51 6 4260
896 0 179 77 53 10 -1
897 0 179 73 54 11 -1
898 0 179 71 57 10 -1
899 0 179 74 56 10 -1
900 0 180 32 98 35 -1
901 0 180 33 96 34 5241
902 0 180 35 94 33 -1
903 0 180 36 97 32 -1
904 0 180 33 96 35 -1
905 0 181 60 15 38 -1
906 0 181 62 17 40 4632
907 0 181 61 21 42 -1
908 0 181 62 18 40 -1
909 0 181 64 15 38 -1
910 0 182 97 49 49 -1
911 0 182 94 46 48 -1
912 0 182 94 43 50 -1
913 0 182 93 42 46 -1
914 0 182 97 43 45 -1
915 0 183 61 7 71 -1
916 0 183 58 9 69 1860
917 0 183 59 6 72 -1
918 0 183 61 6 72 -1
919 0 183 59 9 75 -1
920 0 184 95 63 69 -1
921 0 184 94 62 70 -1
922 0 184 94 65 68 -1
923 0 184 94 70 68 -1
924 0 184 92 70 70 -1
925 0 185 25 72 75 -1
926 0 185 25 72 78 -1
927 0 185 24 75 81 -1
928 0 185 27 72 83 -1
929 0 185 22 73 82 -1
930 0 186 21 77 21 -1
931 0 186 20 73 24 -1
932 0 186 23 75 22 -1
933 0 186 27 76 21 -1
934 0 186 24 76 25 -1
935 0 187 2 70 11 -1
936 0 187 2 66 10 -1
937 0 187 3 62 11 -1
938 0 187 0 62 13 -1
939 0 187 2 63 10 -1
940 0 188 55 76 99 -1
941 0 188 55 74 98 -1
942 0 188 54 78 95 -1
943 0 188 57 79 92 -1
944 0 188 54 82 89 -1
945 0 189 61 23 1 4934
946 0 189 62 19 4 1876
947 0 189 59 22 3 1877
948 0 189 55 22 4 -1
949 0 189 55 22 2 1878
950 0 190 0 72 77 -1
951 0 190 0 70 74 -1
952 0 190 1 67 78 -1
953 0 190 3 64 81 -1
954 0 190 0 65 84 -1
955 0 191 20 68 57 -1
956 0 191 16 68 57 -1
957 0 191 14 65 56 -1
958 0 191 17 65 53 -1
959 0 191 18 69 53 -1
960 0 192 80 99 85 -1
961 0 192 79 2 89 -1
962 0 192 81 99 88 -1
963 0 192 81 96 90 -1
964 0 192 81 96 92 -1
965 0 193 46 84 32 -1
966 0 193 42 84 29 5955
967 0 193 44 87 27 -1
968 0 193 44 87 23 -1
969 0 193 44 82 24 -1
970 0 194 33 56 73 -1
971 0 194 33 55 72 -1
972 0 194 31 52 69 -1
973 0 194 31 49 72 -1
974 0 194 34 52 75 -1
975 0 195 99 91 36 1252
976 0 195 0 91 41 -1
977 0 195 99 88 38 1251
978 0 195 95 91 39 2444
979 0 195 94 88 39 1261
980 0 196 78 13 3 4769
981 0 196 79 13 5 -1
982 0 196 77 15 9 -1
983 0 196 77 18 8 -1
984 0 196 77 14 5 4771
985 0 197 85 2 2 -1
986 0 197 87 4 4 -1
987 0 197 89 4 1 -1
988 0 197 88 5 1 2464
989 0 197 88 4 1 -1
990 0 198 79 40 82 -1
991 0 198 78 37 81 -1
992 0 198 80 36 81 -1
993 0 198 80 39 77 -1
994 0 198 79 34 78 -1
995 0 199 77 65 98 -1
996 0 199 74 68 97 -1
997 0 199 76 68 99 -1
998 0 199 79 70 97 -1
999 0 199 80 69 1 -1
1000 0 200 9 19 29 -1
1001 0 200 10 21 31 -1
1002 0 200 10 21 36 5005
1003 0 200 10 19 33 -1
1004 0 200 12 17 31 -1
1005 0 201 3 82 76 -1
1006 0 201 3 82 72 -1
1007 0 201 4 81 67 -1
1008 0 201 2 79 66 -1
1009 0 201 5 78 66 -1
1010 0 202 2 51 91 -1
1011 0 202 4 52 90 -1
1012 0 202 7 49 91 -1
1013 0 202 8 53 88 -1
1014 0 202 8 54 87 5725
1015 0 203 87 82 23 1815
1016 0 203 85 81 22 1816
1017 0 203 86 78 19 -1
1018 0 203 86 79 18 2058
1019 0 203 89 75 19 -1
1020 0 204 51 54 2 -1
1021 0 204 54 52 2 -1
1022 0 204 59 51 3 5890
1023 0 204 58 52 8 -1
1024 0 204 60 52 8 -1
1025 0 205 21 17 90 1708
1026 0 205 24 20 88 2144
1027 0 205 20 21 91 -1
1028 0 205 20 22 93 -1
1029 0 205 21 18 93 2142
1030 0 206 18 49 44 -1
1031 0 206 16 48 40 1529
1032 0 206 19 49 44 1526
1033 0 206 21 50 41 1525
1034 0 206 22 48 43 -1
1035 0 207 1 38 80 -1
1036 0 207 0 38 80 -1
1037 0 207 3 40 81 -1
1038 0 207 4 36 80 -1
1039 0 207 5 35 82 -1
1040 0 208 12 3 11 -1
1041 0 208 8 5 10 1255
1042 0 208 10 6 10 1256
1043 0 208 11 6 11 -1
1044 0 208 12 4 7 -1
1045 0 209 8 46 79 -1
1046 0 209 5 44 82 -1
1047 0 209 4 43 77 -1
1048 0 209 99 44 78 -1
1049 0 209 96 44 81 -1
1050 0 210 82 96 52 -1
1051 0 210 81 1 52 -1
1052 0 210 80 2 47 -1
1053 0 210 84 99 48 -1
1054 0 210 88 96 48 -1
1055 0 211 98 86 94 -1
1056 0 211 97 86 89 -1
1057 0 211 97 88 88 -1
1058 0 211 94 84 88 5646
1059 0 211 95 84 83 5604
1060 0 212 97 2 50 -1
1061 0 212 2 2 50 -1
1062 0 212 0 99 53 5809
1063 0 212 99 4 53 2161
1064 0 212 2 4 56 -1
1065 0 213 11 42 31 -1
1066 0 213 11 41 35 2101
1067 0 213 10 38 31 -1
1068 0 213 10 35 31 -1
1069 0 213 9 37 35 -1
1070 0 214 90 8 59 -1
1071 0 214 93 12 60 -1
1072 0 214 88 11 61 -1
1073 0 214 91 13 59 -1
1074 0 214 90 15 59 -1
1075 0 215 85 73 38 -1
1076 0 215 84 73 40 -1
1077 0 215 85 71 41 -1
1078 0 215 89 70 44 4535
1079 0 215 88 72 47 4531
1080 0 216 95 64 73 -1
1081 0 216 92 64 72 -1
1082 0 216 96 63 70 -1
1083 0 216 94 60 71 -1
1084 0 216 94 58 75 1797
1085 0 217 13 2 25 4457
1086 0 217 10 2 26 -1
1087 0 217 9 2 29 2269
1088 0 217 9 2 28 2266
1089 0 217 8 98 29 -1
1090 0 218 70 71 55 -1
1091 0 218 71 74 59 -1
1092 0 218 69 74 62 -1
1093 0 218 69 75 62 -1
1094 0 218 71 78 59 -1
1095 0 219 5 82 49 4489
1096 0 219 4 81 50 -1
1097 0 219 2 83 47 -1
1098 0 219 3 84 46 -1
1099 0 219 3 87 47 -1
1100 0 220 56 14 13 -1
1101 0 220 55 11 17 -1
1102 0 220 53 8 20 -1
1103 0 220 50 7 20 -1
1104 0 220 50 7 17 -1
1105 0 221 0 14 70 -1
1106 0 221 99 15 66 -1
1107 0 221 96 16 66 4690
1108 0 221 98 16 66 -1
1109 0 221 94 14 68 1487
1110 0 222 43 7 78 -1
1111 0 222 40 7 82 -1
1112 0 222 41 6 80 -1
1113 0 222 42 3 80 -1
1114 0 222 44 1 80 -1
1115 0 223 2 30 14 -1
1116 0 223 1 27 11 -1
1117 0 223 4 26 10 -1
1118 0 223 8 28 12 -1
1119 0 223 4 27 14 -1
1120 0 224 43 16 58 -1
1121 0 224 47 17 60 -1
1122 0 224 48 14 63 -1
1123 0 224 44 15 60 -1
1124 0 224 43 17 62 -1
1125 0 225 51 85 77 -1
1126 0 225 50 88 79 -1
1127 0 225 49 91 79 -1
1128 0 225 49 91 77 -1
1129 0 225 53 94 76 -1
1130 0 226 9 18 51 -1
1131 0 226 10 18 56 -1
1132 0 226 10 16 53 -1
1133 0 226 13 15 53 -1
1134 0 226 14 14 51 -1
1135 0 227 4 4 28 -1
1136 0 227 6 1 28 2268
1137 0 227 8 3 25 -1
1138 0 227 5 3 28 -1
1139 0 227 3 4 31 -1
1140 0 228 55 41 56 -1
1141 0 228 53 37 57 -1
1142 0 228 53 38 61 -1
1143 0 228 53 35 57 -1
1144 0 228 56 37 56 -1
1145 0 229 30 34 91 -1
1146 0 229 29 34 89 -1
1147 0 229 29 35 93 -1
1148 0 229 33 33 93 4483
1149 0 229 35 34 95 -1
1150 0 230 25 88 33 -1
1151 0 230 22 86 33 -1
1152 0 230 22 90 36 -1
1153 0 230 19 87 34 -1
1154 0 230 21 85 38 -1
1155 0 231 13 80 29 5543
1156 0 231 14 84 31 -1
1157 0 231 17 81 34 -1
1158 0 231 17 83 35 -1
1159 0 231 19 86 34 -1
1160 0 232 58 32 23 -1
1161 0 232 58 30 21 2173
1162 0 232 61 30 21 2170
1163 0 232 59 29 19 -1
1164 0 232 59 29 17 -1
1165 0 233 49 95 16 -1
1166 0 233 46 93 19 -1
1167 0 233 49 96 17 -1
1168 0 233 47 97 15 -1
1169 0 233 45 99 17 -1
1170 0 234 85 9 39 2281
1171 0 234 82 9 43 2284
1172 0 234 79 12 43 -1
1173 0 234 77 8 42 -1
1174 0 234 77 6 45 -1
1175 0 235 57 79 59 -1
1176 0 235 58 76 58 -1
1177 0 235 56 76 57 -1
1178 0 235 57 72 59 -1
1179 0 235 60 71 61 -1
1180 0 236 97 66 53 -1
1181 0 236 98 63 53 -1
1182 0 236 97 65 57 -1
1183 0 236 0 66 58 -1
1184 0 236 3 65 57 -1
1185 0 237 49 72 14 -1
1186 0 237 50 69 10 -1
1187 0 237 51 69 9 -1
1188 0 237 49 68 6 -1
1189 0 237 45 67 9 2488
1190 0 238 20 62 95 -1
1191 0 238 17 63 94 -1
1192 0 238 18 64 91 -1
1193 0 238 19 62 92 -1
1194 0 238 17 66 94 -1
1195 0 239 7 13 48 -1
1196 0 239 6 15 45 -1
1197 0 239 3 14 42 -1
1198 0 239 2 16 40 -1
1199 0 239 6 14 38 1418
1200 0 240 49 72 82 -1
1201 0 240 53 70 82 -1
1202 0 240 56 70 86 -1
1203 0 240 54 69 83 -1
1204 0 240 54 67 82 -1
1205 0 241 87 62 28 -1
1206 0 241 86 65 31 -1
1207 0 241 85 63 34 -1
1208 0 241 89 66 34 -1
1209 0 241 87 68 30 -1
1210 0 242 45 42 25 -1
1211 0 242 46 46 28 5484
1212 0 242 49 44 30 -1
1213 0 242 50 45 34 -1
1214 0 242 47 47 34 -1
1215 0 243 46 14 36 -1
1216 0 243 47 11 39 -1
1217 0 243 51 12 36 -1
1218 0 243 50 11 35 1771
1219 0 243 53 8 36 -1
1220 0 244 23 21 86 -1
1221 0 244 22 22 84 -1
1222 0 244 21 18 85 -1
1223 0 244 20 14 87 1709
1224 0 244 23 12 86 1705
1225 0 245 84 71 9 -1
1226 0 245 80 68 8 4664
1227 0 245 84 71 8 -1
1228 0 245 84 70 7 -1
1229 0 245 83 70 9 -1
1230 0 246 69 79 71 -1
1231 0 246 68 77 71 -1
1232 0 246 68 73 74 -1
1233 0 246 69 76 75 -1
1234 0 246 68 75 80 -1
1235 0 247 83 20 11 -1
1236 0 247 82 20 11 -1
1237 0 247 83 16 14 -1
1238 0 247 87 18 12 -1
1239 0 247 84 22 13 -1
1240 0 248 53 20 88 -1
1241 0 248 53 17 88 -1
1242 0 248 54 14 85 -1
1243 0 248 56 18 84 -1
1244 0 248 53 14 83 -1
1245 0 249 70 72 89 -1
1246 0 249 70 73 90 -1
1247 0 249 72 74 87 -1
1248 0 249 73 75 85 -1
1249 0 249 74 78 86 -1
1250 1 250 94 86 36 -1
1251 1 250 98 87 37 977
1252 1 250 98 90 36 975
1253 1 250 99 92 37 -1
1254 1 250 99 91 34 -1
1255 1 251 7 5 10 1041
1256 1 251 11 5 9 1042
1257 1 251 10 8 7 -1
1258 1 251 9 9 12 -1
1259 1 251 12 6 15 2995
1260 1 252 95 86 39 -1
1261 1 252 93 89 40 979
1262 1 252 94 93 43 -1
1263 1 252 95 94 43 -1
1264 1 252 91 96 41 -1
1265 1 253 55 81 81 -1
1266 1 253 53 85 83 -1
1267 1 253 53 87 85 3899
1268 1 253 56 90 83 -1
1269 1 253 51 89 82 -1
1270 1 254 72 38 21 -1
1271 1 254 75 36 22 -1
1272 1 254 72 36 18 -1
1273 1 254 70 35 18 -1
1274 1 254 72 36 22 -1
1275 1 255 18 52 26 -1
1276 1 255 21 54 27 -1
1277 1 255 22 52 31 -1
1278 1 255 18 51 28 -1
1279 1 255 14 49 26 -1
1280 1 256 9 99 76 -1
1281 1 256 10 0 77 -1
1282 1 256 12 1 76 -1
1283 1 256 12 1 80 -1
1284 1 256 13 97 78 -1
1285 1 257 76 39 35 -1
1286 1 257 74 36 32 -1
1287 1 257 75 39 29 -1
1288 1 257 72 39 29 -1
1289 1 257 73 37 32 -1
1290 1 258 7 25 42 -1
1291 1 258 2 24 43 -1
1292 1 258 99 26 45 -1
1293 1 258 99 28 49 -1
1294 1 258 96 26 46 -1
1295 1 259 74 62 98 3583
1296 1 259 76 65 1 80
1297 1 259 73 62 99 -1
1298 1 259 76 60 97 -1
1299 1 259 78 63 99 -1
1300 1 260 43 17 88 -1
1301 1 260 46 16 89 -1
1302 1 260 49 15 87 -1
1303 1 260 47 11 88 -1
1304 1 260 48 12 90 -1
1305 1 261 49 85 35 -1
1306 1 261 49 83 33 -1
1307 1 261 49 85 37 -1
1308 1 261 47 86 34 -1
1309 1 261 45 85 38 -1
1310 1 262 93 80 27 812
1311 1 262 93 79 31 -1
1312 1 262 92 79 32 -1
1313 1 262 91 76 28 -1
1314 1 262 89 80 30 -1
1315 1 263 16 69 47 -1
1316 1 263 19 70 51 -1
1317 1 263 23 71 53 -1
1318 1 263 26 67 54 -1
1319 1 263 27 64 53 -1
1320 1 264 19 99 35 -1
1321 1 264 23 99 35 -1
1322 1 264 23 2 34 -1
1323 1 264 24 4 31 -1
1324 1 264 21 3 29 -1
1325 1 265 68 91 29 37
1326 1 265 67 94 27 38
1327 1 265 64 97 29 -1
1328 1 265 63 98 24 -1
1329 1 265 64 99 25 -1
1330 1 266 87 22 95 -1
1331 1 266 85 26 95 3428
1332 1 266 84 23 98 -1
1333 1 266 80 25 0 -1
1334 1 266 80 23 1 -1
1335 1 267 6 94 5 2772
1336 1 267 11 94 4 -1
1337 1 267 10 95 1 -1
1338 1 267 10 96 97 -1
1339 1 267 12 97 99 -1
1340 1 268 87 97 35 -1
1341 1 268 86 96 39 -1
1342 1 268 87 99 37 -1
1343 1 268 88 97 36 -1
1344 1 268 90 96 32 -1
1345 1 269 1 73 46 -1
1346 1 269 2 71 47 -1
1347 1 269 98 74 47 -1
1348 1 269 98 75 44 -1
1349 1 269 0 75 41 -1
1350 1 270 90 16 55 -1
1351 1 270 89 15 56 -1
1352 1 270 89 18 58 -1
1353 1 270 90 18 55 -1
1354 1 270 87 21 55 -1
1355 1 271 9 49 8 -1
1356 1 271 6 47 11 -1
1357 1 271 5 49 10 -1
1358 1 271 8 46 7 -1
1359 1 271 4 45 4 -1
1360 1 272 62 67 35 -1
1361 1 272 58 64 36 -1
1362 1 272 59 67 38 -1
1363 1 272 60 67 41 219
1364 1 272 62 70 44 -1
1365 1 273 57 96 77 -1
1366 1 273 55 94 81 -1
1367 1 273 59 95 81 -1
1368 1 273 60 92 82 -1
1369 1 273 63 89 85 -1
1370 1 274 9 47 10 4008