LAMMPS Description

6500	atoms
11000	bonds
0	angles
0	dihedrals
0	impropers

6	atom types
1	bond types
0	angle types

0 100 xlo xhi
0 100 ylo yhi
0 100 zlo zhi

Masses

1	1.0
2	1.0
3	1.0
4	1.0
5	1.0
6	1.0

Atoms

0 0 0 0.0 49 2 92
1 0 0 0.0 48 2 93
2 0 0 0.0 48 99 94
3 0 0 0.0 46 1 96
4 0 0 0.0 48 98 95
5 0 0 0.0 45 98 97
6 1 0 0.0 32 39 22
7 1 0 0.0 30 42 20
8 1 0 0.0 30 40 23
9 1 0 0.0 30 43 23
10 1 0 0.0 28 41 20
11 1 0 0.0 26 38 18
12 2 0 0.0 97 83 30
13 2 0 0.0 99 86 27
14 2 0 0.0 1 84 28
15 2 0 0.0 2 85 25
16 2 0 0.0 2 85 27
17 2 0 0.0 3 88 29
18 3 0 0.0 38 93 65
19 3 0 0.0 38 90 63
20 3 0 0.0 39 89 62
21 3 0 0.0 38 89 61
22 3 0 0.0 41 87 63
23 3 0 0.0 40 84 62
24 4 0 0.0 46 24 99
25 4 0 0.0 48 22 2
26 4 0 0.0 50 24 4
27 4 0 0.0 47 27 7
28 4 0 0.0 48 25 8
29 4 0 0.0 49 25 9
30 5 0 0.0 11 83 51
31 5 0 0.0 14 83 53
32 5 0 0.0 15 83 53
33 5 0 0.0 18 86 52
34 5 0 0.0 19 88 54
35 5 0 0.0 18 91 57
36 6 0 0.0 84 47 77
37 6 0 0.0 87 49 80
38 6 0 0.0 87 52 80
39 6 0 0.0 89 52 83
40 6 0 0.0 90 53 83
41 6 0 0.0 89 53 82
42 7 0 0.0 85 1 40
43 7 0 0.0 83 2 40
44 7 0 0.0 81 0 43
45 7 0 0.0 80 98 42
46 7 0 0.0 78 97 41
47 7 0 0.0 80 95 43
48 8 0 0.0 55 67 48
49 8 0 0.0 56 65 45
50 8 0 0.0 57 62 45
51 8 0 0.0 58 59 42
52 8 0 0.0 60 56 45
53 8 0 0.0 57 58 47
54 9 0 0.0 57 65 96
55 9 0 0.0 58 65 94
56 9 0 0.0 56 68 93
57 9 0 0.0 56 68 94
58 9 0 0.0 55 67 91
59 9 0 0.0 52 70 93
60 10 0 0.0 11 45 90
61 10 0 0.0 13 42 89
62 10 0 0.0 16 39 90
63 10 0 0.0 17 37 91
64 10 0 0.0 15 39 92
65 10 0 0.0 13 36 91
66 11 0 0.0 17 64 66
67 11 0 0.0 19 62 67
68 11 0 0.0 19 59 65
69 11 0 0.0 16 62 65
70 11 0 0.0 15 62 68
71 11 0 0.0 15 65 69
72 12 0 0.0 13 93 58
73 12 0 0.0 10 95 55
74 12 0 0.0 12 94 55
75 12 0 0.0 10 96 56
76 12 0 0.0 7 98 53
77 12 0 0.0 10 98 53
78 13 0 0.0 52 41 91
79 13 0 0.0 52 42 93
80 13 0 0.0 51 42 93
81 13 0 0.0 52 40 94
82 13 0 0.0 49 43 91
83 13 0 0.0 48 46 91
84 14 0 0.0 8 84 69
85 14 0 0.0 5 84 66
86 14 0 0.0 7 84 68
87 14 0 0.0 7 83 68
88 14 0 0.0 8 83 67
89 14 0 0.0 8 82 66
90 15 0 0.0 5 29 28
91 15 0 0.0 6 26 25
92 15 0 0.0 8 23 23
93 15 0 0.0 10 23 21
94 15 0 0.0 8 22 24
95 15 0 0.0 11 22 21
96 16 0 0.0 48 62 89
97 16 0 0.0 46 64 88
98 16 0 0.0 47 67 90
99 16 0 0.0 47 64 88
100 16 0 0.0 45 61 87
101 16 0 0.0 48 58 90
102 17 0 0.0 79 90 50
103 17 0 0.0 82 87 50
104 17 0 0.0 83 89 51
105 17 0 0.0 86 91 50
106 17 0 0.0 85 92 52
107 17 0 0.0 88 95 53
108 18 0 0.0 21 75 61
109 18 0 0.0 23 77 59
110 18 0 0.0 24 75 62
111 18 0 0.0 21 78 65
112 18 0 0.0 22 76 64
113 18 0 0.0 23 76 65
114 19 0 0.0 36 32 94
115 19 0 0.0 35 31 94
116 19 0 0.0 35 33 96
117 19 0 0.0 35 30 95
118 19 0 0.0 37 32 94
119 19 0 0.0 40 34 91
120 20 0 0.0 98 85 40
121 20 0 0.0 1 83 38
122 20 0 0.0 3 81 37
123 20 0 0.0 3 83 37
124 20 0 0.0 2 86 39
125 20 0 0.0 1 89 42
126 21 0 0.0 51 50 3
127 21 0 0.0 54 52 6
128 21 0 0.0 56 51 9
129 21 0 0.0 54 49 11
130 21 0 0.0 53 46 10
131 21 0 0.0 53 44 8
132 22 0 0.0 23 71 43
133 22 0 0.0 23 68 42
134 22 0 0.0 24 70 44
135 22 0 0.0 24 73 44
136 22 0 0.0 26 74 44
137 22 0 0.0 28 71 45
138 23 0 0.0 6 70 30
139 23 0 0.0 3 69 31
140 23 0 0.0 2 72 32
141 23 0 0.0 3 69 30
142 23 0 0.0 6 69 31
143 23 0 0.0 6 69 28
144 24 0 0.0 58 72 96
145 24 0 0.0 61 73 97
146 24 0 0.0 58 71 94
147 24 0 0.0 59 69 95
148 24 0 0.0 59 71 97
149 24 0 0.0 59 68 96
150 25 0 0.0 5 63 37
151 25 0 0.0 6 61 39
152 25 0 0.0 3 58 38
153 25 0 0.0 1 55 39
154 25 0 0.0 99 58 36
155 25 0 0.0 99 61 35
156 26 0 0.0 43 64 31
157 26 0 0.0 46 61 32
158 26 0 0.0 45 62 32
159 26 0 0.0 48 65 35
160 26 0 0.0 49 67 35
161 26 0 0.0 48 68 35
162 27 0 0.0 71 1 45
163 27 0 0.0 73 3 48
164 27 0 0.0 70 2 51
165 27 0 0.0 73 5 49
166 27 0 0.0 74 2 50
167 27 0 0.0 71 99 49
168 28 0 0.0 30 71 62
169 28 0 0.0 29 72 61
170 28 0 0.0 27 70 58
171 28 0 0.0 29 69 55
172 28 0 0.0 31 71 53
173 28 0 0.0 30 72 51
174 29 0 0.0 25 55 13
175 29 0 0.0 28 52 13
176 29 0 0.0 30 49 10
177 29 0 0.0 30 51 12
178 29 0 0.0 33 49 12
179 29 0 0.0 34 48 11
180 30 0 0.0 39 13 80
181 30 0 0.0 42 16 77
182 30 0 0.0 45 15 74
183 30 0 0.0 43 15 75
184 30 0 0.0 40 13 76
185 30 0 0.0 43 12 78
186 31 0 0.0 45 20 2
187 31 0 0.0 44 17 3
188 31 0 0.0 42 20 2
189 31 0 0.0 45 20 5
190 31 0 0.0 43 20 8
191 31 0 0.0 44 20 9
192 32 0 0.0 1 83 50
193 32 0 0.0 4 85 48
194 32 0 0.0 3 82 46
195 32 0 0.0 3 79 43
196 32 0 0.0 1 78 42
197 32 0 0.0 0 76 42
198 33 0 0.0 99 47 14
199 33 0 0.0 0 50 13
200 33 0 0.0 1 52 15
201 33 0 0.0 4 55 12
202 33 0 0.0 6 52 10
203 33 0 0.0 9 49 12
204 34 0 0.0 86 23 55
205 34 0 0.0 85 26 55
206 34 0 0.0 82 26 56
207 34 0 0.0 79 24 56
208 34 0 0.0 76 27 55
209 34 0 0.0 79 25 53
210 35 0 0.0 63 40 11
211 35 0 0.0 60 43 11
212 35 0 0.0 58 45 13
213 35 0 0.0 60 42 11
214 35 0 0.0 57 40 10
215 35 0 0.0 58 41 13
216 36 0 0.0 24 17 36
217 36 0 0.0 27 18 36
218 36 0 0.0 29 20 38
219 36 0 0.0 32 23 36
220 36 0 0.0 33 26 33
221 36 0 0.0 33 23 34
222 37 0 0.0 20 86 11
223 37 0 0.0 23 89 13
224 37 0 0.0 25 86 11
225 37 0 0.0 27 88 10
226 37 0 0.0 30 88 10
227 37 0 0.0 33 88 9
228 38 0 0.0 28 92 83
229 38 0 0.0 28 91 84
230 38 0 0.0 27 94 82
231 38 0 0.0 27 95 81
232 38 0 0.0 25 93 83
233 38 0 0.0 26 93 82
234 39 0 0.0 53 54 17
235 39 0 0.0 51 56 19
236 39 0 0.0 54 59 16
237 39 0 0.0 53 59 15
238 39 0 0.0 55 59 15
239 39 0 0.0 54 60 17
240 40 0 0.0 98 31 78
241 40 0 0.0 97 33 75
242 40 0 0.0 98 34 78
243 40 0 0.0 96 35 77
244 40 0 0.0 93 34 77
245 40 0 0.0 90 37 76
246 41 0 0.0 60 33 30
247 41 0 0.0 61 31 32
248 41 0 0.0 63 33 29
249 41 0 0.0 66 34 30
250 41 0 0.0 65 31 32
251 41 0 0.0 62 33 30
252 42 0 0.0 49 58 58
253 42 0 0.0 46 56 59
254 42 0 0.0 44 58 61
255 42 0 0.0 47 55 60
256 42 0 0.0 46 58 63
257 42 0 0.0 49 57 66
258 43 0 0.0 3 15 30
259 43 0 0.0 6 16 31
260 43 0 0.0 6 13 31
261 43 0 0.0 7 14 28
262 43 0 0.0 9 14 25
263 43 0 0.0 7 11 24
264 44 0 0.0 71 75 11
265 44 0 0.0 71 77 13
266 44 0 0.0 74 77 11
267 44 0 0.0 76 78 8
268 44 0 0.0 75 80 9
269 44 0 0.0 77 77 6
270 45 0 0.0 78 91 14
271 45 0 0.0 75 94 15
272 45 0 0.0 73 96 12
273 45 0 0.0 74 93 15
274 45 0 0.0 73 91 12
275 45 0 0.0 75 93 9
276 46 0 0.0 23 63 60
277 46 0 0.0 23 64 58
278 46 0 0.0 26 62 60
279 46 0 0.0 23 64 60
280 46 0 0.0 21 67 59
281 46 0 0.0 23 70 59
282 47 0 0.0 0 57 86
283 47 0 0.0 1 58 87
284 47 0 0.0 3 58 87
285 47 0 0.0 2 59 89
286 47 0 0.0 0 61 92
287 47 0 0.0 2 58 93
288 48 0 0.0 37 61 62
289 48 0 0.0 36 62 65
290 48 0 0.0 36 65 68
291 48 0 0.0 39 66 69
292 48 0 0.0 41 64 67
293 48 0 0.0 41 61 69
294 49 0 0.0 12 61 68
295 49 0 0.0 9 58 67
296 49 0 0.0 10 58 69
297 49 0 0.0 12 60 70
298 49 0 0.0 14 61 68
299 49 0 0.0 15 64 70
300 50 0 0.0 11 24 65
301 50 0 0.0 11 21 67
302 50 0 0.0 8 21 66
303 50 0 0.0 7 23 69
304 50 0 0.0 4 26 70
305 50 0 0.0 4 25 67
306 51 0 0.0 81 86 76
307 51 0 0.0 80 84 78
308 51 0 0.0 78 83 78
309 51 0 0.0 78 82 77
310 51 0 0.0 81 83 77
311 51 0 0.0 83 85 74
312 52 0 0.0 28 81 9
313 52 0 0.0 30 82 9
314 52 0 0.0 28 85 6
315 52 0 0.0 30 84 6
316 52 0 0.0 33 86 7
317 52 0 0.0 32 83 5
318 53 0 0.0 79 10 9
319 53 0 0.0 80 10 9
320 53 0 0.0 81 9 7
321 53 0 0.0 82 8 7
322 53 0 0.0 81 11 10
323 53 0 0.0 82 10 8
324 54 0 0.0 11 72 58
325 54 0 0.0 9 70 55
326 54 0 0.0 10 70 55
327 54 0 0.0 8 67 53
328 54 0 0.0 5 69 50
329 54 0 0.0 6 69 53
330 55 0 0.0 55 1 53
331 55 0 0.0 54 99 56
332 55 0 0.0 54 98 54
333 55 0 0.0 52 1 51
334 55 0 0.0 54 2 54
335 55 0 0.0 52 99 57
336 56 0 0.0 94 20 90
337 56 0 0.0 91 21 91
338 56 0 0.0 91 18 90
339 56 0 0.0 89 21 89
340 56 0 0.0 90 24 86
341 56 0 0.0 92 26 85
342 57 0 0.0 23 7 61
343 57 0 0.0 24 7 63
344 57 0 0.0 22 4 63
345 57 0 0.0 22 2 60
346 57 0 0.0 21 3 60
347 57 0 0.0 18 5 63
348 58 0 0.0 65 16 96
349 58 0 0.0 64 15 97
350 58 0 0.0 61 18 0
351 58 0 0.0 60 15 97
352 58 0 0.0 60 12 0
353 58 0 0.0 62 11 1
354 59 0 0.0 53 33 94
355 59 0 0.0 56 33 96
356 59 0 0.0 56 36 93
357 59 0 0.0 57 37 93
358 59 0 0.0 56 34 95
359 59 0 0.0 54 31 98
360 60 0 0.0 26 71 3
361 60 0 0.0 23 69 1
362 60 0 0.0 23 66 2
363 60 0 0.0 25 68 0
364 60 0 0.0 27 71 98
365 60 0 0.0 29 69 99
366 61 0 0.0 49 10 90
367 61 0 0.0 52 13 87
368 61 0 0.0 54 10 86
369 61 0 0.0 57 7 86
370 61 0 0.0 56 5 88
371 61 0 0.0 53 7 91
372 62 0 0.0 75 6 63
373 62 0 0.0 76 3 63
374 62 0 0.0 73 1 65
375 62 0 0.0 74 0 63
376 62 0 0.0 73 97 64
377 62 0 0.0 71 95 64
378 63 0 0.0 92 89 97
379 63 0 0.0 90 92 96
380 63 0 0.0 91 90 93
381 63 0 0.0 88 88 94
382 63 0 0.0 86 86 91
383 63 0 0.0 89 84 88
384 64 0 0.0 16 18 95
385 64 0 0.0 19 15 94
386 64 0 0.0 21 15 93
387 64 0 0.0 21 14 96
388 64 0 0.0 19 14 97
389 64 0 0.0 18 16 0
390 65 0 0.0 23 76 86
391 65 0 0.0 23 79 84
392 65 0 0.0 20 76 83
393 65 0 0.0 17 79 80
394 65 0 0.0 15 80 81
395 65 0 0.0 18 79 81
396 66 0 0.0 21 95 20
397 66 0 0.0 19 97 20
398 66 0 0.0 22 98 18
399 66 0 0.0 21 98 20
400 66 0 0.0 23 0 19
401 66 0 0.0 24 0 16
402 67 0 0.0 45 82 67
403 67 0 0.0 47 81 64
404 67 0 0.0 50 79 65
405 67 0 0.0 51 79 68
406 67 0 0.0 50 80 68
407 67 0 0.0 52 78 65
408 68 0 0.0 15 41 78
409 68 0 0.0 15 42 79
410 68 0 0.0 13 45 82
411 68 0 0.0 14 48 83
412 68 0 0.0 12 51 83
413 68 0 0.0 13 49 81
414 69 0 0.0 88 73 95
415 69 0 0.0 87 76 92
416 69 0 0.0 89 73 94
417 69 0 0.0 86 74 92
418 69 0 0.0 89 72 89
419 69 0 0.0 91 74 90
420 70 0 0.0 29 57 50
421 70 0 0.0 28 56 47
422 70 0 0.0 28 55 45
423 70 0 0.0 31 52 45
424 70 0 0.0 28 50 48
425 70 0 0.0 31 50 49
426 71 0 0.0 92 80 17
427 71 0 0.0 94 79 18
428 71 0 0.0 94 81 21
429 71 0 0.0 94 83 20
430 71 0 0.0 96 85 21
431 71 0 0.0 94 84 18
432 72 0 0.0 71 50 85
433 72 0 0.0 69 50 82
434 72 0 0.0 69 47 80
435 72 0 0.0 72 46 82
436 72 0 0.0 70 43 82
437 72 0 0.0 72 41 81
438 73 0 0.0 91 68 97
439 73 0 0.0 88 70 98
440 73 0 0.0 89 73 1
441 73 0 0.0 89 73 0
442 73 0 0.0 91 71 98
443 73 0 0.0 90 72 1
444 74 0 0.0 71 93 48
445 74 0 0.0 72 90 51
446 74 0 0.0 69 89 50
447 74 0 0.0 67 91 51
448 74 0 0.0 70 90 50
449 74 0 0.0 73 92 50
450 75 0 0.0 41 59 4
451 75 0 0.0 40 56 4
452 75 0 0.0 42 59 5
453 75 0 0.0 41 59 7
454 75 0 0.0 43 56 4
455 75 0 0.0 43 57 5
456 76 0 0.0 21 55 60
457 76 0 0.0 21 52 61
458 76 0 0.0 22 51 64
459 76 0 0.0 20 51 67
460 76 0 0.0 20 49 69
461 76 0 0.0 21 52 70
462 77 0 0.0 57 48 8
463 77 0 0.0 58 49 9
464 77 0 0.0 59 47 9
465 77 0 0.0 59 45 10
466 77 0 0.0 57 46 8
467 77 0 0.0 55 49 10
468 78 0 0.0 21 55 44
469 78 0 0.0 19 52 45
470 78 0 0.0 19 52 43
471 78 0 0.0 22 50 46
472 78 0 0.0 20 53 44
473 78 0 0.0 18 50 46
474 79 0 0.0 3 28 63
475 79 0 0.0 3 25 66
476 79 0 0.0 3 26 63
477 79 0 0.0 2 24 64
478 79 0 0.0 4 26 63
479 79 0 0.0 5 26 63
480 80 0 0.0 70 13 47
481 80 0 0.0 73 14 45
482 80 0 0.0 71 15 44
483 80 0 0.0 73 12 43
484 80 0 0.0 72 14 44
485 80 0 0.0 74 17 45
486 81 0 0.0 22 95 17
487 81 0 0.0 22 98 17
488 81 0 0.0 19 96 19
489 81 0 0.0 20 95 22
490 81 0 0.0 20 97 22
491 81 0 0.0 22 98 22
492 82 0 0.0 65 21 71
493 82 0 0.0 67 23 70
494 82 0 0.0 65 25 71
495 82 0 0.0 66 23 68
496 82 0 0.0 66 22 66
497 82 0 0.0 66 22 64
498 83 0 0.0 45 55 23
499 83 0 0.0 42 54 20
500 83 0 0.0 39 54 20
501 83 0 0.0 40 56 18
502 83 0 0.0 39 56 18
503 83 0 0.0 37 58 16
504 84 0 0.0 80 44 30
505 84 0 0.0 79 43 29
506 84 0 0.0 81 44 31
507 84 0 0.0 84 46 33
508 84 0 0.0 87 45 32
509 84 0 0.0 84 44 34
510 85 0 0.0 15 40 84
511 85 0 0.0 15 38 82
512 85 0 0.0 16 40 84
513 85 0 0.0 13 39 87
514 85 0 0.0 10 36 88
515 85 0 0.0 7 37 90
516 86 0 0.0 30 67 64
517 86 0 0.0 31 69 67
518 86 0 0.0 29 67 70
519 86 0 0.0 32 64 68
520 86 0 0.0 31 66 66
521 86 0 0.0 33 68 67
522 87 0 0.0 73 67 12
523 87 0 0.0 75 64 9
524 87 0 0.0 73 63 7
525 87 0 0.0 73 62 5
526 87 0 0.0 73 62 6
527 87 0 0.0 71 62 5
528 88 0 0.0 48 19 22
529 88 0 0.0 46 21 23
530 88 0 0.0 44 20 25
531 88 0 0.0 45 20 27
532 88 0 0.0 44 20 26
533 88 0 0.0 46 22 29
534 89 0 0.0 85 72 86
535 89 0 0.0 88 69 85
536 89 0 0.0 87 72 84
537 89 0 0.0 90 71 85
538 89 0 0.0 92 70 83
539 89 0 0.0 90 70 83
540 90 0 0.0 24 77 54
541 90 0 0.0 26 75 57
542 90 0 0.0 23 72 57
543 90 0 0.0 23 75 54
544 90 0 0.0 23 73 56
545 90 0 0.0 23 70 58
546 91 0 0.0 26 1 12
547 91 0 0.0 24 0 9
548 91 0 0.0 22 98 6
549 91 0 0.0 24 99 4
550 91 0 0.0 22 97 5
551 91 0 0.0 21 98 6
552 92 0 0.0 62 88 97
553 92 0 0.0 59 90 0
554 92 0 0.0 61 93 0
555 92 0 0.0 58 91 97
556 92 0 0.0 59 89 94
557 92 0 0.0 56 90 96
558 93 0 0.0 18 37 96
559 93 0 0.0 18 40 94
560 93 0 0.0 18 37 91
561 93 0 0.0 19 36 92
562 93 0 0.0 16 39 93
563 93 0 0.0 14 40 92
564 94 0 0.0 79 58 9
565 94 0 0.0 79 55 10
566 94 0 0.0 80 52 8
567 94 0 0.0 80 54 10
568 94 0 0.0 83 57 13
569 94 0 0.0 83 57 11
570 95 0 0.0 8 20 32
571 95 0 0.0 6 17 31
572 95 0 0.0 9 17 30
573 95 0 0.0 7 20 30
574 95 0 0.0 7 22 32
575 95 0 0.0 4 24 34
576 96 0 0.0 69 45 60
577 96 0 0.0 67 46 62
578 96 0 0.0 67 45 65
579 96 0 0.0 67 43 68
580 96 0 0.0 70 43 65
581 96 0 0.0 71 46 62
582 97 0 0.0 24 93 21
583 97 0 0.0 27 91 19
584 97 0 0.0 30 93 17
585 97 0 0.0 28 95 20
586 97 0 0.0 31 95 20
587 97 0 0.0 34 97 23
588 98 0 0.0 11 42 22
589 98 0 0.0 12 45 19
590 98 0 0.0 10 48 21
591 98 0 0.0 10 51 20
592 98 0 0.0 13 50 23
593 98 0 0.0 14 50 23
594 99 0 0.0 99 61 72
595 99 0 0.0 0 62 72
596 99 0 0.0 2 65 69
597 99 0 0.0 4 64 66
598 99 0 0.0 3 65 67
599 99 0 0.0 3 63 67
600 100 0 0.0 58 85 57
601 100 0 0.0 56 82 60
602 100 0 0.0 53 82 58
603 100 0 0.0 53 80 59
604 100 0 0.0 55 78 59
605 100 0 0.0 57 78 58
606 101 0 0.0 13 29 3
607 101 0 0.0 10 28 2
608 101 0 0.0 13 29 2
609 101 0 0.0 11 32 1
610 101 0 0.0 9 29 1
611 101 0 0.0 12 28 4
612 102 0 0.0 79 36 16
613 102 0 0.0 76 33 15
614 102 0 0.0 75 30 17
615 102 0 0.0 78 27 17
616 102 0 0.0 79 30 15
617 102 0 0.0 76 33 13
618 103 0 0.0 54 29 60
619 103 0 0.0 54 26 60
620 103 0 0.0 56 23 57
621 103 0 0.0 58 21 59
622 103 0 0.0 56 20 62
623 103 0 0.0 59 23 64
624 104 0 0.0 77 3 70
625 104 0 0.0 79 1 69
626 104 0 0.0 77 98 70
627 104 0 0.0 78 95 72
628 104 0 0.0 75 94 74
629 104 0 0.0 77 95 77
630 105 0 0.0 97 36 50
631 105 0 0.0 97 36 49
632 105 0 0.0 0 36 52
633 105 0 0.0 0 37 50
634 105 0 0.0 97 40 48
635 105 0 0.0 97 39 45
636 106 0 0.0 71 85 9
637 106 0 0.0 69 83 8
638 106 0 0.0 72 80 6
639 106 0 0.0 73 79 6
640 106 0 0.0 75 81 6
641 106 0 0.0 73 82 8
642 107 0 0.0 12 22 24
643 107 0 0.0 12 22 21
644 107 0 0.0 15 24 23
645 107 0 0.0 16 22 22
646 107 0 0.0 16 20 22
647 107 0 0.0 18 21 24
648 108 0 0.0 81 57 22
649 108 0 0.0 80 56 22
650 108 0 0.0 79 59 20
651 108 0 0.0 82 59 19
652 108 0 0.0 79 56 16
653 108 0 0.0 79 54 17
654 109 0 0.0 55 4 51
655 109 0 0.0 53 4 51
656 109 0 0.0 56 3 53
657 109 0 0.0 55 5 52
658 109 0 0.0 53 8 52
659 109 0 0.0 50 9 52
660 110 0 0.0 23 60 60
661 110 0 0.0 25 57 63
662 110 0 0.0 25 55 65
663 110 0 0.0 26 53 66
664 110 0 0.0 25 50 67
665 110 0 0.0 26 52 69
666 111 0 0.0 25 58 85
667 111 0 0.0 24 60 84
668 111 0 0.0 22 59 86
669 111 0 0.0 20 61 84
670 111 0 0.0 22 63 85
671 111 0 0.0 19 60 86
672 112 0 0.0 55 4 27
673 112 0 0.0 53 3 25
674 112 0 0.0 56 6 26
675 112 0 0.0 53 9 29
676 112 0 0.0 51 8 32
677 112 0 0.0 50 9 31
678 113 0 0.0 75 77 46
679 113 0 0.0 76 79 44
680 113 0 0.0 73 77 45
681 113 0 0.0 71 80 46
682 113 0 0.0 70 81 46
683 113 0 0.0 72 84 49
684 114 0 0.0 95 75 44
685 114 0 0.0 93 76 45
686 114 0 0.0 92 75 48
687 114 0 0.0 95 73 47
688 114 0 0.0 98 74 46
689 114 0 0.0 1 73 47
690 115 0 0.0 66 61 9
691 115 0 0.0 64 61 6
692 115 0 0.0 64 58 5
693 115 0 0.0 64 60 6
694 115 0 0.0 63 58 3
695 115 0 0.0 60 60 3
696 116 0 0.0 63 1 28
697 116 0 0.0 64 1 31
698 116 0 0.0 65 1 29
699 116 0 0.0 66 98 26
700 116 0 0.0 69 96 28
701 116 0 0.0 70 95 28
702 117 0 0.0 25 45 62
703 117 0 0.0 27 42 61
704 117 0 0.0 29 42 64
705 117 0 0.0 27 42 66
706 117 0 0.0 24 40 64
707 117 0 0.0 21 40 65
708 118 0 0.0 56 8 25
709 118 0 0.0 59 5 27
710 118 0 0.0 62 4 24
711 118 0 0.0 62 7 25
712 118 0 0.0 62 4 27
713 118 0 0.0 61 1 28
714 119 0 0.0 15 74 16
715 119 0 0.0 12 72 15
716 119 0 0.0 10 72 13
717 119 0 0.0 13 73 13
718 119 0 0.0 15 71 14
719 119 0 0.0 12 68 13
720 120 0 0.0 54 81 23
721 120 0 0.0 53 81 23
722 120 0 0.0 52 83 25
723 120 0 0.0 50 80 23
724 120 0 0.0 52 80 23
725 120 0 0.0 52 77 25
726 121 0 0.0 44 36 66
727 121 0 0.0 43 35 65
728 121 0 0.0 41 34 62
729 121 0 0.0 42 33 62
730 121 0 0.0 44 33 59
731 121 0 0.0 44 31 60
732 122 0 0.0 81 99 89
733 122 0 0.0 82 96 87
734 122 0 0.0 79 93 88
735 122 0 0.0 76 91 85
736 122 0 0.0 73 91 87
737 122 0 0.0 74 89 84
738 123 0 0.0 2 58 59
739 123 0 0.0 4 56 57
740 123 0 0.0 6 59 58
741 123 0 0.0 9 62 57
742 123 0 0.0 6 65 54
743 123 0 0.0 4 66 54
744 124 0 0.0 43 38 52
745 124 0 0.0 46 35 50
746 124 0 0.0 47 37 51
747 124 0 0.0 50 36 51
748 124 0 0.0 48 38 49
749 124 0 0.0 50 39 50
750 125 0 0.0 83 50 84
751 125 0 0.0 84 49 83
752 125 0 0.0 85 51 80
753 125 0 0.0 86 54 79
754 125 0 0.0 85 55 79
755 125 0 0.0 85 58 80
756 126 0 0.0 77 35 20
757 126 0 0.0 74 33 19
758 126 0 0.0 71 30 17
759 126 0 0.0 70 32 18
760 126 0 0.0 71 30 19
761 126 0 0.0 69 30 17
762 127 0 0.0 86 33 52
763 127 0 0.0 85 31 51
764 127 0 0.0 86 28 48
765 127 0 0.0 88 26 50
766 127 0 0.0 88 28 50
767 127 0 0.0 87 28 49
768 128 0 0.0 66 3 35
769 128 0 0.0 65 4 33
770 128 0 0.0 62 1 30
771 128 0 0.0 59 99 33
772 128 0 0.0 58 99 33
773 128 0 0.0 56 0 30
774 129 0 0.0 78 99 87
775 129 0 0.0 78 96 86
776 129 0 0.0 80 93 86
777 129 0 0.0 80 95 88
778 129 0 0.0 77 94 90
779 129 0 0.0 78 96 90
780 130 0 0.0 1 96 10
781 130 0 0.0 2 99 8
782 130 0 0.0 4 2 11
783 130 0 0.0 4 1 9
784 130 0 0.0 7 1 10
785 130 0 0.0 8 0 11
786 131 0 0.0 98 59 37
787 131 0 0.0 1 58 37
788 131 0 0.0 0 56 38
789 131 0 0.0 1 58 36
790 131 0 0.0 4 59 38
791 131 0 0.0 4 58 38
792 132 0 0.0 10 8 10
793 132 0 0.0 9 5 12
794 132 0 0.0 12 2 11
795 132 0 0.0 15 3 9
796 132 0 0.0 18 6 11
797 132 0 0.0 18 3 11
798 133 0 0.0 61 46 40
799 133 0 0.0 63 44 43
800 133 0 0.0 62 46 46
801 133 0 0.0 63 48 47
802 133 0 0.0 60 50 46
803 133 0 0.0 61 52 44
804 134 0 0.0 70 91 32
805 134 0 0.0 70 89 29
806 134 0 0.0 71 87 26
807 134 0 0.0 70 87 28
808 134 0 0.0 70 87 31
809 134 0 0.0 69 90 32
810 135 0 0.0 44 88 40
811 135 0 0.0 44 88 38
812 135 0 0.0 42 88 39
813 135 0 0.0 44 89 36
814 135 0 0.0 43 86 38
815 135 0 0.0 45 88 37
816 136 0 0.0 27 64 4
817 136 0 0.0 24 61 3
818 136 0 0.0 26 58 3
819 136 0 0.0 23 61 2
820 136 0 0.0 20 58 2
821 136 0 0.0 19 56 2
822 137 0 0.0 77 4 11
823 137 0 0.0 79 5 10
824 137 0 0.0 78 5 9
825 137 0 0.0 79 6 7
826 137 0 0.0 77 8 10
827 137 0 0.0 79 7 10
828 138 0 0.0 40 48 66
829 138 0 0.0 43 49 69
830 138 0 0.0 44 47 71
831 138 0 0.0 44 49 68
832 138 0 0.0 47 52 65
833 138 0 0.0 50 51 67
834 139 0 0.0 38 3 5
835 139 0 0.0 37 0 2
836 139 0 0.0 40 97 4
837 139 0 0.0 39 95 7
838 139 0 0.0 40 92 7
839 139 0 0.0 37 94 4
840 140 0 0.0 16 12 9
841 140 0 0.0 15 11 10
842 140 0 0.0 15 14 11
843 140 0 0.0 14 14 12
844 140 0 0.0 11 16 11
845 140 0 0.0 8 14 14
846 141 0 0.0 48 75 22
847 141 0 0.0 45 74 20
848 141 0 0.0 42 77 20
849 141 0 0.0 41 76 22
850 141 0 0.0 40 78 22
851 141 0 0.0 43 81 23
852 142 0 0.0 69 8 92
853 142 0 0.0 67 6 93
854 142 0 0.0 65 4 91
855 142 0 0.0 68 4 92
856 142 0 0.0 68 1 89
857 142 0 0.0 67 2 88
858 143 0 0.0 91 46 5
859 143 0 0.0 94 47 8
860 143 0 0.0 92 46 10
861 143 0 0.0 93 44 7
862 143 0 0.0 91 44 5
863 143 0 0.0 88 44 8
864 144 0 0.0 70 82 41
865 144 0 0.0 69 81 41
866 144 0 0.0 69 80 38
867 144 0 0.0 71 78 39
868 144 0 0.0 72 75 39
869 144 0 0.0 75 74 37
870 145 0 0.0 74 43 7
871 145 0 0.0 72 46 9
872 145 0 0.0 75 43 7
873 145 0 0.0 77 41 10
874 145 0 0.0 74 40 11
875 145 0 0.0 77 37 14
876 146 0 0.0 81 15 75
877 146 0 0.0 80 18 74
878 146 0 0.0 78 15 72
879 146 0 0.0 81 14 74
880 146 0 0.0 84 16 76
881 146 0 0.0 87 16 76
882 147 0 0.0 54 21 89
883 147 0 0.0 51 18 86
884 147 0 0.0 52 18 85
885 147 0 0.0 49 16 88
886 147 0 0.0 50 19 91
887 147 0 0.0 50 19 93
888 148 0 0.0 35 98 91
889 148 0 0.0 35 99 93
890 148 0 0.0 36 96 95
891 148 0 0.0 37 96 94
892 148 0 0.0 38 93 95
893 148 0 0.0 40 92 98
894 149 0 0.0 91 48 23
895 149 0 0.0 90 48 21
896 149 0 0.0 87 50 23
897 149 0 0.0 86 53 25
898 149 0 0.0 85 55 28
899 149 0 0.0 84 56 28
900 150 0 0.0 20 70 63
901 150 0 0.0 21 73 63
902 150 0 0.0 20 72 63
903 150 0 0.0 19 71 63
904 150 0 0.0 17 71 61
905 150 0 0.0 15 74 64
906 151 0 0.0 6 1 54
907 151 0 0.0 8 2 56
908 151 0 0.0 5 4 56
909 151 0 0.0 7 3 56
910 151 0 0.0 5 6 56
911 151 0 0.0 8 6 54
912 152 0 0.0 5 24 61
913 152 0 0.0 5 27 59
914 152 0 0.0 6 29 56
915 152 0 0.0 7 30 59
916 152 0 0.0 5 29 57
917 152 0 0.0 8 31 57
918 153 0 0.0 63 55 73
919 153 0 0.0 66 52 74
920 153 0 0.0 66 53 74
921 153 0 0.0 67 51 71
922 153 0 0.0 64 51 70
923 153 0 0.0 66 49 70
924 154 0 0.0 65 53 59
925 154 0 0.0 64 52 59
926 154 0 0.0 63 52 58
927 154 0 0.0 61 49 61
928 154 0 0.0 64 49 61
929 154 0 0.0 61 52 62
930 155 0 0.0 92 31 63
931 155 0 0.0 94 31 60
932 155 0 0.0 96 34 63
933 155 0 0.0 97 31 65
934 155 0 0.0 95 28 64
935 155 0 0.0 94 25 62
936 156 0 0.0 71 78 42
937 156 0 0.0 74 81 42
938 156 0 0.0 75 81 44
939 156 0 0.0 76 78 43
940 156 0 0.0 75 75 40
941 156 0 0.0 77 75 43
942 157 0 0.0 76 13 11
943 157 0 0.0 78 12 9
944 157 0 0.0 75 9 6
945 157 0 0.0 76 11 9
946 157 0 0.0 76 10 8
947 157 0 0.0 76 7 6
948 158 0 0.0 95 78 15
949 158 0 0.0 98 76 13
950 158 0 0.0 0 74 14
951 158 0 0.0 2 71 12
952 158 0 0.0 5 71 15
953 158 0 0.0 3 73 15
954 159 0 0.0 58 19 30
955 159 0 0.0 58 19 31
956 159 0 0.0 56 21 34
957 159 0 0.0 55 24 34
958 159 0 0.0 52 23 35
959 159 0 0.0 50 23 33
960 160 0 0.0 15 89 7
961 160 0 0.0 15 90 6
962 160 0 0.0 16 91 5
963 160 0 0.0 13 93 2
964 160 0 0.0 15 96 3
965 160 0 0.0 16 96 0
966 161 0 0.0 38 82 84
967 161 0 0.0 41 85 85
968 161 0 0.0 41 83 86
969 161 0 0.0 43 81 87
970 161 0 0.0 43 84 87
971 161 0 0.0 43 86 90
972 162 0 0.0 12 56 33
973 162 0 0.0 9 59 34
974 162 0 0.0 12 60 33
975 162 0 0.0 15 61 33
976 162 0 0.0 14 61 33
977 162 0 0.0 17 64 34
978 163 0 0.0 34 20 76
979 163 0 0.0 35 18 79
980 163 0 0.0 35 20 77
981 163 0 0.0 36 23 80
982 163 0 0.0 38 26 80
983 163 0 0.0 38 23 81
984 164 0 0.0 99 79 51
985 164 0 0.0 0 81 49
986 164 0 0.0 3 83 49
987 164 0 0.0 1 85 46
988 164 0 0.0 1 87 45
989 164 0 0.0 3 90 47
990 165 0 0.0 81 57 45
991 165 0 0.0 82 60 45
992 165 0 0.0 82 57 45
993 165 0 0.0 83 57 44
994 165 0 0.0 82 56 44
995 165 0 0.0 82 54 44
996 166 0 0.0 88 3 12
997 166 0 0.0 89 3 10
998 166 0 0.0 86 0 11
999 166 0 0.0 88 99 9
1000 166 0 0.0 86 1 12
1001 166 0 0.0 87 4 13
1002 167 0 0.0 21 55 64
1003 167 0 0.0 20 57 66
1004 167 0 0.0 21 58 67
1005 167 0 0.0 23 61 68
1006 167 0 0.0 21 59 70
1007 167 0 0.0 21 62 72
1008 168 0 0.0 1 33 42
1009 168 0 0.0 98 35 39
1010 168 0 0.0 99 33 40
1011 168 0 0.0 97 36 37
1012 168 0 0.0 96 34 39
1013 168 0 0.0 97 34 36
1014 169 0 0.0 38 94 22
1015 169 0 0.0 38 95 22
1016 169 0 0.0 40 93 21
1017 169 0 0.0 37 96 23
1018 169 0 0.0 37 95 25
1019 169 0 0.0 34 96 28
1020 170 0 0.0 54 95 20
1021 170 0 0.0 53 94 20
1022 170 0 0.0 54 93 23
1023 170 0 0.0 57 90 25
1024 170 0 0.0 54 87 27
1025 170 0 0.0 53 90 29
1026 171 0 0.0 68 13 71
1027 171 0 0.0 66 15 73
1028 171 0 0.0 65 18 73
1029 171 0 0.0 68 16 76
1030 171 0 0.0 66 15 79
1031 171 0 0.0 66 12 79
1032 172 0 0.0 97 92 20
1033 172 0 0.0 95 93 23
1034 172 0 0.0 93 91 21
1035 172 0 0.0 90 92 21
1036 172 0 0.0 90 95 19
1037 172 0 0.0 92 92 17
1038 173 0 0.0 19 80 41
1039 173 0 0.0 17 77 44
1040 173 0 0.0 16 78 45
1041 173 0 0.0 16 76 43
1042 173 0 0.0 13 77 41
1043 173 0 0.0 12 78 44
1044 174 0 0.0 34 37 94
1045 174 0 0.0 36 34 95
1046 174 0 0.0 36 36 96
1047 174 0 0.0 33 33 93
1048 174 0 0.0 33 32 96
1049 174 0 0.0 32 31 93
1050 175 0 0.0 31 12 82
1051 175 0 0.0 31 9 81
1052 175 0 0.0 34 6 83
1053 175 0 0.0 36 3 83
1054 175 0 0.0 33 6 80
1055 175 0 0.0 33 5 78
1056 176 0 0.0 86 48 84
1057 176 0 0.0 86 45 85
1058 176 0 0.0 84 42 82
1059 176 0 0.0 81 43 80
1060 176 0 0.0 79 40 83
1061 176 0 0.0 78 37 81
1062 177 0 0.0 8 80 39
1063 177 0 0.0 9 82 40
1064 177 0 0.0 9 80 37
1065 177 0 0.0 11 79 38
1066 177 0 0.0 13 80 37
1067 177 0 0.0 10 82 40
1068 178 0 0.0 13 65 72
1069 178 0 0.0 16 68 74
1070 178 0 0.0 13 68 71
1071 178 0 0.0 14 66 70
1072 178 0 0.0 14 65 73
1073 178 0 0.0 15 65 72
1074 179 0 0.0 44 77 93
1075 179 0 0.0 46 79 95
1076 179 0 0.0 49 82 93
1077 179 0 0.0 50 83 93
1078 179 0 0.0 52 84 94
1079 179 0 0.0 52 81 92
1080 180 0 0.0 98 66 31
1081 180 0 0.0 95 69 31
1082 180 0 0.0 92 70 29
1083 180 0 0.0 89 72 32
1084 180 0 0.0 92 69 35
1085 180 0 0.0 94 72 38
1086 181 0 0.0 66 93 47
1087 181 0 0.0 66 90 44
1088 181 0 0.0 65 92 41
1089 181 0 0.0 62 93 39
1090 181 0 0.0 62 93 38
1091 181 0 0.0 61 96 40
1092 182 0 0.0 29 39 33
1093 182 0 0.0 27 41 32
1094 182 0 0.0 27 40 35
1095 182 0 0.0 27 38 32
1096 182 0 0.0 28 36 33
1097 182 0 0.0 25 37 35
1098 183 0 0.0 32 57 38
1099 183 0 0.0 33 60 41
1100 183 0 0.0 36 59 38
1101 183 0 0.0 37 58 37
1102 183 0 0.0 39 60 35
1103 183 0 0.0 37 61 33
1104 184 0 0.0 79 14 14
1105 184 0 0.0 78 11 15
1106 184 0 0.0 79 8 14
1107 184 0 0.0 78 10 16
1108 184 0 0.0 77 11 15
1109 184 0 0.0 80 9 17
1110 185 0 0.0 58 2 24
1111 185 0 0.0 61 99 21
1112 185 0 0.0 62 0 18
1113 185 0 0.0 64 3 17
1114 185 0 0.0 66 2 18
1115 185 0 0.0 68 99 19
1116 186 0 0.0 65 5 70
1117 186 0 0.0 68 4 72
1118 186 0 0.0 71 3 71
1119 186 0 0.0 74 6 68
1120 186 0 0.0 76 9 70
1121 186 0 0.0 73 6 72
1122 187 0 0.0 24 37 8
1123 187 0 0.0 26 36 8
1124 187 0 0.0 27 35 10
1125 187 0 0.0 24 35 7
1126 187 0 0.0 24 32 5
1127 187 0 0.0 22 35 6
1128 188 0 0.0 90 37 83
1129 188 0 0.0 93 37 83
1130 188 0 0.0 96 40 86
1131 188 0 0.0 97 38 89
1132 188 0 0.0 0 40 90
1133 188 0 0.0 99 43 88
1134 189 0 0.0 36 81 89
1135 189 0 0.0 37 84 88
1136 189 0 0.0 38 86 87
1137 189 0 0.0 36 84 84
1138 189 0 0.0 36 85 86
1139 189 0 0.0 37 86 85
1140 190 0 0.0 26 11 15
1141 190 0 0.0 23 14 13
1142 190 0 0.0 23 13 11
1143 190 0 0.0 25 14 10
1144 190 0 0.0 27 13 7
1145 190 0 0.0 28 13 8
1146 191 0 0.0 55 24 73
1147 191 0 0.0 58 21 75
1148 191 0 0.0 55 20 78
1149 191 0 0.0 55 20 76
1150 191 0 0.0 53 20 78
1151 191 0 0.0 56 17 77
1152 192 0 0.0 20 57 31
1153 192 0 0.0 21 54 31
1154 192 0 0.0 23 54 30
1155 192 0 0.0 25 53 31
1156 192 0 0.0 25 55 28
1157 192 0 0.0 23 52 26
1158 193 0 0.0 60 30 54
1159 193 0 0.0 62 30 57
1160 193 0 0.0 60 29 58
1161 193 0 0.0 61 31 61
1162 193 0 0.0 64 30 62
1163 193 0 0.0 64 31 63
1164 194 0 0.0 35 43 56
1165 194 0 0.0 37 46 59
1166 194 0 0.0 39 48 60
1167 194 0 0.0 41 45 58
1168 194 0 0.0 39 44 56
1169 194 0 0.0 39 45 54
1170 195 0 0.0 70 59 4
1171 195 0 0.0 71 57 1
1172 195 0 0.0 74 56 2
1173 195 0 0.0 75 58 99
1174 195 0 0.0 78 60 1
1175 195 0 0.0 77 61 98
1176 196 0 0.0 12 53 33
1177 196 0 0.0 13 56 34
1178 196 0 0.0 16 59 37
1179 196 0 0.0 15 59 35
1180 196 0 0.0 17 56 34
1181 196 0 0.0 16 55 32
1182 197 0 0.0 54 60 76
1183 197 0 0.0 56 59 79
1184 197 0 0.0 54 62 82
1185 197 0 0.0 52 59 84
1186 197 0 0.0 52 62 84
1187 197 0 0.0 53 61 84
1188 198 0 0.0 97 19 77
1189 198 0 0.0 96 17 77
1190 198 0 0.0 98 16 79
1191 198 0 0.0 96 14 80
1192 198 0 0.0 97 17 82
1193 198 0 0.0 97 19 82
1194 199 0 0.0 68 95 0
1195 199 0 0.0 65 96 0
1196 199 0 0.0 64 98 98
1197 199 0 0.0 64 99 95
1198 199 0 0.0 65 1 95
1199 199 0 0.0 68 99 98
1200 200 0 0.0 55 95 28
1201 200 0 0.0 57 93 28
1202 200 0 0.0 60 94 27
1203 200 0 0.0 58 97 29
1204 200 0 0.0 59 96 28
1205 200 0 0.0 58 93 25
1206 201 0 0.0 57 67 69
1207 201 0 0.0 56 66 68
1208 201 0 0.0 53 64 69
1209 201 0 0.0 54 67 72
1210 201 0 0.0 56 67 74
1211 201 0 0.0 53 67 75
1212 202 0 0.0 44 93 28
1213 202 0 0.0 46 94 28
1214 202 0 0.0 44 94 25
1215 202 0 0.0 42 93 23
1216 202 0 0.0 45 91 25
1217 202 0 0.0 43 91 24
1218 203 0 0.0 25 32 33
1219 203 0 0.0 28 30 32
1220 203 0 0.0 25 30 29
1221 203 0 0.0 27 28 28
1222 203 0 0.0 29 28 30
1223 203 0 0.0 26 30 29
1224 204 0 0.0 97 2 45
1225 204 0 0.0 0 2 47
1226 204 0 0.0 97 3 48
1227 204 0 0.0 0 1 46
1228 204 0 0.0 3 99 45
1229 204 0 0.0 2 96 43
1230 205 0 0.0 88 68 64
1231 205 0 0.0 88 70 64
1232 205 0 0.0 90 67 63
1233 205 0 0.0 88 64 62
1234 205 0 0.0 91 63 65
1235 205 0 0.0 94 64 65
1236 206 0 0.0 45 19 40
1237 206 0 0.0 43 18 43
1238 206 0 0.0 42 21 43
1239 206 0 0.0 42 24 40
1240 206 0 0.0 42 21 40
1241 206 0 0.0 40 19 37
1242 207 0 0.0 4 90 92
1243 207 0 0.0 7 88 90
1244 207 0 0.0 9 85 90
1245 207 0 0.0 12 87 90
1246 207 0 0.0 11 84 90
1247 207 0 0.0 10 83 89
1248 208 0 0.0 73 91 45
1249 208 0 0.0 75 90 43
1250 208 0 0.0 75 88 44
1251 208 0 0.0 74 89 43
1252 208 0 0.0 75 90 42
1253 208 0 0.0 75 88 43
1254 209 0 0.0 76 29 73
1255 209 0 0.0 79 32 76
1256 209 0 0.0 79 33 79
1257 209 0 0.0 78 33 76
1258 209 0 0.0 75 33 77
1259 209 0 0.0 76 34 78
1260 210 0 0.0 8 21 41
1261 210 0 0.0 11 19 38
1262 210 0 0.0 8 17 40
1263 210 0 0.0 11 14 38
1264 210 0 0.0 9 17 36
1265 210 0 0.0 10 14 33
1266 211 0 0.0 21 65 12
1267 211 0 0.0 24 66 9
1268 211 0 0.0 23 67 10
1269 211 0 0.0 23 66 8
1270 211 0 0.0 26 64 6
1271 211 0 0.0 23 66 3
1272 212 0 0.0 5 79 48
1273 212 0 0.0 3 80 50
1274 212 0 0.0 2 80 49
1275 212 0 0.0 0 81 50
1276 212 0 0.0 0 82 52
1277 212 0 0.0 3 81 49
1278 213 0 0.0 53 92 83
1279 213 0 0.0 55 94 83
1280 213 0 0.0 58 93 80
1281 213 0 0.0 61 94 79
1282 213 0 0.0 63 95 80
1283 213 0 0.0 63 97 82
1284 214 0 0.0 10 46 42
1285 214 0 0.0 12 46 41
1286 214 0 0.0 10 48 38
1287 214 0 0.0 9 48 39
1288 214 0 0.0 6 49 41
1289 214 0 0.0 8 46 39
1290 215 0 0.0 49 32 71
1291 215 0 0.0 48 30 74
1292 215 0 0.0 51 28 77
1293 215 0 0.0 48 28 76
1294 215 0 0.0 47 25 73
1295 215 0 0.0 47 25 70
1296 216 0 0.0 2 95 86
1297 216 0 0.0 1 96 88
1298 216 0 0.0 3 98 91
1299 216 0 0.0 1 98 92
1300 216 0 0.0 1 1 89
1301 216 0 0.0 2 3 88
1302 217 0 0.0 34 22 29
1303 217 0 0.0 33 24 32
1304 217 0 0.0 32 26 33
1305 217 0 0.0 35 26 30
1306 217 0 0.0 37 28 33
1307 217 0 0.0 39 28 31
1308 218 0 0.0 44 27 52
1309 218 0 0.0 46 24 52
1310 218 0 0.0 45 25 50
1311 218 0 0.0 46 24 50
1312 218 0 0.0 47 25 52
1313 218 0 0.0 46 26 55
1314 219 0 0.0 47 23 32
1315 219 0 0.0 48 20 30
1316 219 0 0.0 45 17 28
1317 219 0 0.0 46 20 25
1318 219 0 0.0 47 22 24
1319 219 0 0.0 48 23 22
1320 220 0 0.0 99 48 34
1321 220 0 0.0 96 46 32
1322 220 0 0.0 96 43 30
1323 220 0 0.0 95 46 32
1324 220 0 0.0 92 46 35
1325 220 0 0.0 90 45 32
1326 221 0 0.0 60 39 46
1327 221 0 0.0 63 38 44
1328 221 0 0.0 65 41 45
1329 221 0 0.0 66 40 43
1330 221 0 0.0 64 39 41
1331 221 0 0.0 65 37 40