LAMMPS Description

6000	atoms
10000	bonds
0	angles
0	dihedrals
0	impropers

6	atom types
1	bond types
0	angle types

0 100 xlo xhi
0 100 ylo yhi
0 100 zlo zhi

Masses

1	1.0
2	1.0
3	1.0
4	1.0
5	1.0
6	1.0

Atoms

0 0 0 0.0 39 87 40
1 0 0 0.0 38 89 40
2 0 0 0.0 38 90 40
3 0 0 0.0 38 90 42
4 0 0 0.0 39 90 41
5 1 0 0.0 12 71 12
6 1 0 0.0 15 74 13
7 1 0 0.0 16 72 15
8 1 0 0.0 14 73 16
9 1 0 0.0 12 74 19
10 2 0 0.0 67 96 78
11 2 0 0.0 65 94 80
12 2 0 0.0 64 96 82
13 2 0 0.0 61 96 81
14 2 0 0.0 59 93 80
15 3 0 0.0 32 76 11
16 3 0 0.0 29 73 12
17 3 0 0.0 28 76 15
18 3 0 0.0 28 78 16
19 3 0 0.0 28 75 16
20 4 0 0.0 87 50 53
21 4 0 0.0 88 51 52
22 4 0 0.0 91 49 50
23 4 0 0.0 90 49 50
24 4 0 0.0 89 52 51
25 5 0 0.0 45 85 97
26 5 0 0.0 47 88 97
27 5 0 0.0 50 90 96
28 5 0 0.0 51 90 98
29 5 0 0.0 52 89 96
30 6 0 0.0 73 0 27
31 6 0 0.0 74 99 28
32 6 0 0.0 76 2 28
33 6 0 0.0 76 1 31
34 6 0 0.0 75 1 32
35 7 0 0.0 86 99 34
36 7 0 0.0 89 2 33
37 7 0 0.0 89 99 31
38 7 0 0.0 91 96 31
39 7 0 0.0 91 94 34
40 8 0 0.0 48 65 32
41 8 0 0.0 48 67 35
42 8 0 0.0 50 65 35
43 8 0 0.0 49 66 38
44 8 0 0.0 50 69 41
45 9 0 0.0 66 15 57
46 9 0 0.0 64 17 54
47 9 0 0.0 66 14 51
48 9 0 0.0 67 16 54
49 9 0 0.0 70 19 52
50 10 0 0.0 32 18 0
51 10 0 0.0 32 18 2
52 10 0 0.0 33 16 0
53 10 0 0.0 33 16 2
54 10 0 0.0 33 18 0
55 11 0 0.0 68 95 4
56 11 0 0.0 67 92 3
57 11 0 0.0 64 91 6
58 11 0 0.0 63 94 9
59 11 0 0.0 63 94 12
60 12 0 0.0 71 59 0
61 12 0 0.0 71 58 3
62 12 0 0.0 71 56 3
63 12 0 0.0 71 53 1
64 12 0 0.0 73 52 3
65 13 0 0.0 21 17 69
66 13 0 0.0 18 16 69
67 13 0 0.0 19 19 68
68 13 0 0.0 19 21 66
69 13 0 0.0 20 23 69
70 14 0 0.0 6 75 3
71 14 0 0.0 3 74 5
72 14 0 0.0 6 75 2
73 14 0 0.0 6 73 0
74 14 0 0.0 6 76 97
75 15 0 0.0 89 6 85
76 15 0 0.0 90 9 83
77 15 0 0.0 92 8 81
78 15 0 0.0 94 5 78
79 15 0 0.0 93 6 78
80 16 0 0.0 21 92 56
81 16 0 0.0 21 93 57
82 16 0 0.0 19 91 57
83 16 0 0.0 19 93 60
84 16 0 0.0 16 90 57
85 17 0 0.0 30 62 63
86 17 0 0.0 32 60 61
87 17 0 0.0 32 58 61
88 17 0 0.0 30 57 64
89 17 0 0.0 31 56 65
90 18 0 0.0 10 9 97
91 18 0 0.0 10 11 98
92 18 0 0.0 12 9 99
93 18 0 0.0 9 11 0
94 18 0 0.0 6 12 97
95 19 0 0.0 45 52 1
96 19 0 0.0 48 55 99
97 19 0 0.0 47 57 2
98 19 0 0.0 49 58 1
99 19 0 0.0 47 55 4
100 20 0 0.0 43 69 92
101 20 0 0.0 42 72 95
102 20 0 0.0 42 70 95
103 20 0 0.0 45 67 93
104 20 0 0.0 44 68 94
105 21 0 0.0 78 41 2
106 21 0 0.0 81 40 5
107 21 0 0.0 78 38 4
108 21 0 0.0 77 35 5
109 21 0 0.0 77 33 8
110 22 0 0.0 88 79 82
111 22 0 0.0 91 79 79
112 22 0 0.0 94 79 81
113 22 0 0.0 94 79 82
114 22 0 0.0 95 80 84
115 23 0 0.0 48 11 73
116 23 0 0.0 48 11 71
117 23 0 0.0 46 9 69
118 23 0 0.0 44 11 72
119 23 0 0.0 46 14 71
120 24 0 0.0 9 88 75
121 24 0 0.0 12 89 75
122 24 0 0.0 9 92 72
123 24 0 0.0 12 92 69
124 24 0 0.0 10 90 72
125 25 0 0.0 96 5 51
126 25 0 0.0 93 2 50
127 25 0 0.0 96 1 50
128 25 0 0.0 95 2 47
129 25 0 0.0 95 3 44
130 26 0 0.0 76 77 83
131 26 0 0.0 74 76 83
132 26 0 0.0 75 74 84
133 26 0 0.0 76 71 87
134 26 0 0.0 75 68 88
135 27 0 0.0 99 99 87
136 27 0 0.0 99 96 88
137 27 0 0.0 2 93 85
138 27 0 0.0 1 91 82
139 27 0 0.0 1 93 79
140 28 0 0.0 3 39 2
141 28 0 0.0 0 41 4
142 28 0 0.0 99 39 7
143 28 0 0.0 97 38 6
144 28 0 0.0 97 41 9
145 29 0 0.0 9 31 99
146 29 0 0.0 8 29 98
147 29 0 0.0 5 26 99
148 29 0 0.0 3 28 1
149 29 0 0.0 3 25 98
150 30 0 0.0 3 6 1
151 30 0 0.0 6 3 1
152 30 0 0.0 6 5 1
153 30 0 0.0 6 6 0
154 30 0 0.0 7 4 0
155 31 0 0.0 25 23 83
156 31 0 0.0 28 21 82
157 31 0 0.0 29 19 84
158 31 0 0.0 27 17 84
159 31 0 0.0 26 16 81
160 32 0 0.0 46 87 92
161 32 0 0.0 46 84 89
162 32 0 0.0 44 86 92
163 32 0 0.0 44 83 90
164 32 0 0.0 44 86 91
165 33 0 0.0 44 39 39
166 33 0 0.0 46 41 40
167 33 0 0.0 46 41 42
168 33 0 0.0 49 44 41
169 33 0 0.0 47 43 42
170 34 0 0.0 76 64 34
171 34 0 0.0 73 66 32
172 34 0 0.0 75 68 30
173 34 0 0.0 74 68 33
174 34 0 0.0 72 67 34
175 35 0 0.0 64 77 43
176 35 0 0.0 66 76 45
177 35 0 0.0 63 73 47
178 35 0 0.0 61 70 47
179 35 0 0.0 60 67 50
180 36 0 0.0 32 44 90
181 36 0 0.0 33 41 90
182 36 0 0.0 31 40 92
183 36 0 0.0 29 41 89
184 36 0 0.0 30 44 92
185 37 0 0.0 4 89 65
186 37 0 0.0 1 89 68
187 37 0 0.0 99 90 67
188 37 0 0.0 97 93 67
189 37 0 0.0 94 96 69
190 38 0 0.0 25 79 97
191 38 0 0.0 28 81 96
192 38 0 0.0 25 82 96
193 38 0 0.0 24 83 95
194 38 0 0.0 25 84 92
195 39 0 0.0 19 37 15
196 39 0 0.0 22 34 13
197 39 0 0.0 23 32 16
198 39 0 0.0 26 34 15
199 39 0 0.0 26 33 12
200 40 0 0.0 56 54 27
201 40 0 0.0 53 54 25
202 40 0 0.0 50 53 27
203 40 0 0.0 50 50 29
204 40 0 0.0 48 52 30
205 41 0 0.0 2 99 91
206 41 0 0.0 5 0 89
207 41 0 0.0 3 1 89
208 41 0 0.0 6 98 91
209 41 0 0.0 5 95 91
210 42 0 0.0 22 4 45
211 42 0 0.0 23 3 46
212 42 0 0.0 25 4 43
213 42 0 0.0 24 2 42
214 42 0 0.0 22 5 40
215 43 0 0.0 17 85 37
216 43 0 0.0 20 83 38
217 43 0 0.0 17 84 39
218 43 0 0.0 20 85 40
219 43 0 0.0 20 82 37
220 44 0 0.0 84 48 17
221 44 0 0.0 83 47 18
222 44 0 0.0 86 45 16
223 44 0 0.0 83 46 13
224 44 0 0.0 83 43 14
225 45 0 0.0 40 92 99
226 45 0 0.0 37 91 97
227 45 0 0.0 34 93 0
228 45 0 0.0 35 94 1
229 45 0 0.0 36 93 3
230 46 0 0.0 95 88 92
231 46 0 0.0 98 91 89
232 46 0 0.0 95 93 90
233 46 0 0.0 96 95 88
234 46 0 0.0 93 93 86
235 47 0 0.0 84 73 5
236 47 0 0.0 85 71 8
237 47 0 0.0 85 69 9
238 47 0 0.0 85 66 12
239 47 0 0.0 84 69 14
240 48 0 0.0 30 86 69
241 48 0 0.0 30 86 70
242 48 0 0.0 32 83 72
243 48 0 0.0 30 82 74
244 48 0 0.0 27 79 74
245 49 0 0.0 58 10 47
246 49 0 0.0 55 11 46
247 49 0 0.0 53 9 46
248 49 0 0.0 54 7 47
249 49 0 0.0 54 7 48
250 50 0 0.0 87 35 84
251 50 0 0.0 87 35 85
252 50 0 0.0 85 38 86
253 50 0 0.0 83 41 86
254 50 0 0.0 80 40 88
255 51 0 0.0 59 77 34
256 51 0 0.0 58 78 31
257 51 0 0.0 57 81 32
258 51 0 0.0 58 78 34
259 51 0 0.0 57 79 31
260 52 0 0.0 28 20 38
261 52 0 0.0 28 18 41
262 52 0 0.0 29 16 44
263 52 0 0.0 29 18 41
264 52 0 0.0 26 18 40
265 53 0 0.0 80 37 42
266 53 0 0.0 81 40 39
267 53 0 0.0 80 38 36
268 53 0 0.0 80 38 33
269 53 0 0.0 79 39 32
270 54 0 0.0 25 62 31
271 54 0 0.0 23 59 34
272 54 0 0.0 22 61 32
273 54 0 0.0 25 58 31
274 54 0 0.0 28 58 34
275 55 0 0.0 94 4 49
276 55 0 0.0 96 1 46
277 55 0 0.0 97 1 47
278 55 0 0.0 98 99 44
279 55 0 0.0 97 96 42
280 56 0 0.0 90 55 4
281 56 0 0.0 88 53 5
282 56 0 0.0 85 50 7
283 56 0 0.0 82 53 9
284 56 0 0.0 84 51 10
285 57 0 0.0 57 54 88
286 57 0 0.0 54 56 87
287 57 0 0.0 57 58 90
288 57 0 0.0 60 60 93
289 57 0 0.0 63 63 93
290 58 0 0.0 22 69 88
291 58 0 0.0 24 68 86
292 58 0 0.0 25 65 88
293 58 0 0.0 28 66 91
294 58 0 0.0 25 63 91
295 59 0 0.0 65 42 70
296 59 0 0.0 66 43 72
297 59 0 0.0 66 42 73
298 59 0 0.0 66 43 71
299 59 0 0.0 65 40 73
300 60 0 0.0 97 54 42
301 60 0 0.0 94 57 45
302 60 0 0.0 97 54 45
303 60 0 0.0 99 57 48
304 60 0 0.0 97 56 51
305 61 0 0.0 8 8 92
306 61 0 0.0 11 6 89
307 61 0 0.0 11 9 90
308 61 0 0.0 8 10 87
309 61 0 0.0 9 12 84
310 62 0 0.0 26 16 10
311 62 0 0.0 23 14 11
312 62 0 0.0 24 17 12
313 62 0 0.0 23 17 14
314 62 0 0.0 24 14 11
315 63 0 0.0 91 45 76
316 63 0 0.0 89 48 73
317 63 0 0.0 90 48 74
318 63 0 0.0 91 50 73
319 63 0 0.0 94 52 74
320 64 0 0.0 89 29 38
321 64 0 0.0 87 30 39
322 64 0 0.0 86 29 41
323 64 0 0.0 87 30 40
324 64 0 0.0 88 29 40
325 65 0 0.0 1 65 56
326 65 0 0.0 3 62 59
327 65 0 0.0 0 59 62
328 65 0 0.0 3 57 59
329 65 0 0.0 1 54 57
330 66 0 0.0 45 78 95
331 66 0 0.0 43 77 94
332 66 0 0.0 41 77 95
333 66 0 0.0 43 78 98
334 66 0 0.0 41 80 99
335 67 0 0.0 68 43 86
336 67 0 0.0 69 41 88
337 67 0 0.0 66 43 91
338 67 0 0.0 69 44 88
339 67 0 0.0 68 45 85
340 68 0 0.0 62 71 18
341 68 0 0.0 65 69 19
342 68 0 0.0 65 70 20
343 68 0 0.0 62 71 17
344 68 0 0.0 63 72 18
345 69 0 0.0 91 56 8
346 69 0 0.0 94 56 7
347 69 0 0.0 91 58 7
348 69 0 0.0 93 56 9
349 69 0 0.0 92 57 8
350 70 0 0.0 18 7 11
351 70 0 0.0 21 10 11
352 70 0 0.0 20 7 9
353 70 0 0.0 21 9 12
354 70 0 0.0 19 9 10
355 71 0 0.0 54 15 71
356 71 0 0.0 56 12 72
357 71 0 0.0 58 14 74
358 71 0 0.0 58 17 76
359 71 0 0.0 55 17 74
360 72 0 0.0 89 50 28
361 72 0 0.0 91 47 27
362 72 0 0.0 88 44 30
363 72 0 0.0 88 47 30
364 72 0 0.0 91 45 30
365 73 0 0.0 50 29 8
366 73 0 0.0 50 29 6
367 73 0 0.0 53 26 6
368 73 0 0.0 53 23 7
369 73 0 0.0 54 24 8
370 74 0 0.0 74 13 26
371 74 0 0.0 75 12 29
372 74 0 0.0 78 11 31
373 74 0 0.0 76 8 30
374 74 0 0.0 74 7 28
375 75 0 0.0 7 65 28
376 75 0 0.0 4 64 28
377 75 0 0.0 6 66 30
378 75 0 0.0 3 63 33
379 75 0 0.0 3 66 30
380 76 0 0.0 8 50 37
381 76 0 0.0 10 51 37
382 76 0 0.0 8 52 36
383 76 0 0.0 8 51 36
384 76 0 0.0 5 50 39
385 77 0 0.0 73 76 97
386 77 0 0.0 72 74 99
387 77 0 0.0 72 71 98
388 77 0 0.0 73 68 96
389 77 0 0.0 75 68 99
390 78 0 0.0 10 88 73
391 78 0 0.0 12 89 74
392 78 0 0.0 14 90 71
393 78 0 0.0 11 93 69
394 78 0 0.0 9 94 66
395 79 0 0.0 83 78 91
396 79 0 0.0 84 81 94
397 79 0 0.0 84 83 94
398 79 0 0.0 81 86 92
399 79 0 0.0 84 85 93
400 80 0 0.0 16 41 23
401 80 0 0.0 19 43 22
402 80 0 0.0 20 41 23
403 80 0 0.0 19 42 23
404 80 0 0.0 21 41 26
405 81 0 0.0 48 31 97
406 81 0 0.0 45 31 98
407 81 0 0.0 45 29 96
408 81 0 0.0 44 31 98
409 81 0 0.0 46 29 95
410 82 0 0.0 43 40 67
411 82 0 0.0 41 37 67
412 82 0 0.0 40 36 64
413 82 0 0.0 40 36 61
414 82 0 0.0 37 33 60
415 83 0 0.0 0 0 8
416 83 0 0.0 3 1 7
417 83 0 0.0 2 1 5
418 83 0 0.0 2 2 4
419 83 0 0.0 2 0 1
420 84 0 0.0 58 48 91
421 84 0 0.0 57 49 93
422 84 0 0.0 55 48 95
423 84 0 0.0 56 50 92
424 84 0 0.0 57 50 92
425 85 0 0.0 14 60 50
426 85 0 0.0 15 57 49
427 85 0 0.0 14 60 46
428 85 0 0.0 16 57 44
429 85 0 0.0 19 54 42
430 86 0 0.0 95 86 88
431 86 0 0.0 92 86 89
432 86 0 0.0 92 85 87
433 86 0 0.0 94 85 90
434 86 0 0.0 96 87 92
435 87 0 0.0 11 3 69
436 87 0 0.0 10 2 67
437 87 0 0.0 12 2 64
438 87 0 0.0 14 3 65
439 87 0 0.0 14 3 67
440 88 0 0.0 50 41 31
441 88 0 0.0 48 43 33
442 88 0 0.0 51 45 31
443 88 0 0.0 49 43 30
444 88 0 0.0 47 42 28
445 89 0 0.0 96 98 48
446 89 0 0.0 99 98 49
447 89 0 0.0 1 97 47
448 89 0 0.0 99 97 47
449 89 0 0.0 0 99 47
450 90 0 0.0 66 56 73
451 90 0 0.0 63 53 75
452 90 0 0.0 66 51 72
453 90 0 0.0 63 53 70
454 90 0 0.0 65 55 70
455 91 0 0.0 12 33 68
456 91 0 0.0 10 35 66
457 91 0 0.0 7 38 69
458 91 0 0.0 5 38 71
459 91 0 0.0 6 36 69
460 92 0 0.0 50 27 36
461 92 0 0.0 51 29 35
462 92 0 0.0 51 29 38
463 92 0 0.0 49 29 37
464 92 0 0.0 52 32 37
465 93 0 0.0 99 93 67
466 93 0 0.0 1 91 67
467 93 0 0.0 99 92 67
468 93 0 0.0 1 89 64
469 93 0 0.0 1 86 65
470 94 0 0.0 87 80 44
471 94 0 0.0 88 78 47
472 94 0 0.0 90 80 45
473 94 0 0.0 89 80 44
474 94 0 0.0 86 81 45
475 95 0 0.0 98 20 92
476 95 0 0.0 99 22 95
477 95 0 0.0 98 25 97
478 95 0 0.0 96 23 96
479 95 0 0.0 97 25 98
480 96 0 0.0 3 64 85
481 96 0 0.0 3 62 87
482 96 0 0.0 3 59 86
483 96 0 0.0 0 56 87
484 96 0 0.0 3 56 87
485 97 0 0.0 89 53 24
486 97 0 0.0 92 50 25
487 97 0 0.0 95 53 27
488 97 0 0.0 94 52 26
489 97 0 0.0 91 55 28
490 98 0 0.0 55 8 31
491 98 0 0.0 52 11 34
492 98 0 0.0 52 12 37
493 98 0 0.0 49 11 36
494 98 0 0.0 47 13 36
495 99 0 0.0 86 39 51
496 99 0 0.0 89 40 52
497 99 0 0.0 86 39 53
498 99 0 0.0 87 39 54
499 99 0 0.0 85 38 53
500 100 0 0.0 27 74 68
501 100 0 0.0 27 76 68
502 100 0 0.0 29 77 68
503 100 0 0.0 30 78 66
504 100 0 0.0 27 78 67
505 101 0 0.0 96 8 56
506 101 0 0.0 93 7 56
507 101 0 0.0 91 5 56
508 101 0 0.0 90 6 57
509 101 0 0.0 92 4 58
510 102 0 0.0 99 25 19
511 102 0 0.0 1 23 18
512 102 0 0.0 4 21 15
513 102 0 0.0 4 18 15
514 102 0 0.0 3 19 12
515 103 0 0.0 39 75 61
516 103 0 0.0 37 73 62
517 103 0 0.0 36 70 59
518 103 0 0.0 37 71 61
519 103 0 0.0 36 74 62
520 104 0 0.0 31 99 11
521 104 0 0.0 34 1 10
522 104 0 0.0 31 1 10
523 104 0 0.0 29 0 12
524 104 0 0.0 29 0 11
525 105 0 0.0 42 87 24
526 105 0 0.0 43 86 21
527 105 0 0.0 41 87 20
528 105 0 0.0 39 85 20
529 105 0 0.0 42 85 21
530 106 0 0.0 18 43 57
531 106 0 0.0 18 43 59
532 106 0 0.0 19 44 57
533 106 0 0.0 16 43 60
534 106 0 0.0 13 44 59
535 107 0 0.0 8 56 49
536 107 0 0.0 5 58 50
537 107 0 0.0 6 61 52
538 107 0 0.0 9 59 55
539 107 0 0.0 9 58 58
540 108 0 0.0 93 98 80
541 108 0 0.0 91 99 80
542 108 0 0.0 93 97 78
543 108 0 0.0 91 96 78
544 108 0 0.0 88 98 75
545 109 0 0.0 81 28 47
546 109 0 0.0 82 29 45
547 109 0 0.0 79 30 43
548 109 0 0.0 82 30 42
549 109 0 0.0 83 30 42
550 110 0 0.0 17 12 38
551 110 0 0.0 14 14 37
552 110 0 0.0 17 11 36
553 110 0 0.0 19 12 38
554 110 0 0.0 21 15 39
555 111 0 0.0 95 80 81
556 111 0 0.0 98 83 81
557 111 0 0.0 1 86 84
558 111 0 0.0 2 86 83
559 111 0 0.0 1 84 85
560 112 0 0.0 38 71 98
561 112 0 0.0 38 74 96
562 112 0 0.0 38 73 98
563 112 0 0.0 41 74 98
564 112 0 0.0 38 77 96
565 113 0 0.0 70 5 14
566 113 0 0.0 70 4 14
567 113 0 0.0 73 7 14
568 113 0 0.0 72 10 17
569 113 0 0.0 75 8 16
570 114 0 0.0 6 22 74
571 114 0 0.0 7 20 72
572 114 0 0.0 8 23 73
573 114 0 0.0 7 21 74
574 114 0 0.0 8 20 72
575 115 0 0.0 32 75 33
576 115 0 0.0 29 74 30
577 115 0 0.0 29 72 33
578 115 0 0.0 29 70 33
579 115 0 0.0 30 67 35
580 116 0 0.0 64 83 57
581 116 0 0.0 61 84 59
582 116 0 0.0 62 87 59
583 116 0 0.0 60 88 61
584 116 0 0.0 60 88 59
585 117 0 0.0 36 63 63
586 117 0 0.0 35 64 66
587 117 0 0.0 35 65 64
588 117 0 0.0 34 66 64
589 117 0 0.0 35 69 66
590 118 0 0.0 51 0 48
591 118 0 0.0 52 97 48
592 118 0 0.0 51 98 50
593 118 0 0.0 50 1 51
594 118 0 0.0 49 1 50
595 119 0 0.0 45 74 44
596 119 0 0.0 43 72 46
597 119 0 0.0 43 69 48
598 119 0 0.0 45 72 48
599 119 0 0.0 46 73 50
600 120 0 0.0 66 90 6
601 120 0 0.0 69 87 3
602 120 0 0.0 69 89 3
603 120 0 0.0 72 91 1
604 120 0 0.0 72 89 2
605 121 0 0.0 64 6 14
606 121 0 0.0 65 8 12
607 121 0 0.0 62 8 9
608 121 0 0.0 61 11 8
609 121 0 0.0 61 8 5
610 122 0 0.0 10 81 43
611 122 0 0.0 9 79 44
612 122 0 0.0 12 79 41
613 122 0 0.0 15 82 38
614 122 0 0.0 14 80 35
615 123 0 0.0 57 41 52
616 123 0 0.0 54 40 50
617 123 0 0.0 55 42 53
618 123 0 0.0 56 39 56
619 123 0 0.0 57 40 56
620 124 0 0.0 37 9 20
621 124 0 0.0 38 10 23
622 124 0 0.0 37 12 21
623 124 0 0.0 38 13 18
624 124 0 0.0 35 13 21
625 125 0 0.0 45 49 31
626 125 0 0.0 46 51 31
627 125 0 0.0 47 50 30
628 125 0 0.0 49 51 29
629 125 0 0.0 52 48 26
630 126 0 0.0 26 13 21
631 126 0 0.0 27 16 21
632 126 0 0.0 27 15 24
633 126 0 0.0 27 15 22
634 126 0 0.0 28 12 23
635 127 0 0.0 87 31 28
636 127 0 0.0 90 32 29
637 127 0 0.0 89 32 30
638 127 0 0.0 86 35 27
639 127 0 0.0 84 36 26
640 128 0 0.0 51 62 29
641 128 0 0.0 53 61 29
642 128 0 0.0 56 62 32
643 128 0 0.0 59 63 30
644 128 0 0.0 60 64 30
645 129 0 0.0 31 7 61
646 129 0 0.0 29 10 62
647 129 0 0.0 32 12 65
648 129 0 0.0 29 9 62
649 129 0 0.0 27 8 61
650 130 0 0.0 85 39 47
651 130 0 0.0 87 37 49
652 130 0 0.0 90 40 49
653 130 0 0.0 91 38 51
654 130 0 0.0 89 36 53
655 131 0 0.0 16 96 24
656 131 0 0.0 19 93 23
657 131 0 0.0 22 94 24
658 131 0 0.0 19 94 21
659 131 0 0.0 19 97 18
660 132 0 0.0 80 10 82
661 132 0 0.0 82 11 84
662 132 0 0.0 84 13 81
663 132 0 0.0 82 10 84
664 132 0 0.0 79 8 86
665 133 0 0.0 23 70 35
666 133 0 0.0 25 67 35
667 133 0 0.0 22 69 36
668 133 0 0.0 21 70 33
669 133 0 0.0 20 69 34
670 134 0 0.0 77 91 27
671 134 0 0.0 77 88 28
672 134 0 0.0 76 87 30
673 134 0 0.0 79 85 30
674 134 0 0.0 76 83 29
675 135 0 0.0 46 59 43
676 135 0 0.0 48 60 41
677 135 0 0.0 48 62 38
678 135 0 0.0 49 60 35
679 135 0 0.0 49 57 35
680 136 0 0.0 18 51 63
681 136 0 0.0 20 53 63
682 136 0 0.0 21 51 66
683 136 0 0.0 21 51 65
684 136 0 0.0 20 53 67
685 137 0 0.0 93 86 15
686 137 0 0.0 96 89 14
687 137 0 0.0 93 92 17
688 137 0 0.0 91 95 20
689 137 0 0.0 89 94 22
690 138 0 0.0 14 14 98
691 138 0 0.0 16 12 95
692 138 0 0.0 17 9 97
693 138 0 0.0 17 9 98
694 138 0 0.0 20 9 95
695 139 0 0.0 97 24 0
696 139 0 0.0 96 26 2
697 139 0 0.0 93 25 5
698 139 0 0.0 93 28 5
699 139 0 0.0 94 29 8
700 140 0 0.0 30 57 86
701 140 0 0.0 28 55 83
702 140 0 0.0 31 57 82
703 140 0 0.0 28 57 80
704 140 0 0.0 27 59 81
705 141 0 0.0 35 76 51
706 141 0 0.0 36 78 54
707 141 0 0.0 36 80 52
708 141 0 0.0 38 78 49
709 141 0 0.0 39 77 52
710 142 0 0.0 16 46 80
711 142 0 0.0 14 48 82
712 142 0 0.0 12 47 85
713 142 0 0.0 12 49 84
714 142 0 0.0 9 47 84
715 143 0 0.0 21 59 75
716 143 0 0.0 21 58 76
717 143 0 0.0 18 55 77
718 143 0 0.0 18 58 76
719 143 0 0.0 19 59 77
720 144 0 0.0 84 33 54
721 144 0 0.0 86 31 54
722 144 0 0.0 89 28 53
723 144 0 0.0 92 27 55
724 144 0 0.0 89 26 52
725 145 0 0.0 58 35 11
726 145 0 0.0 60 36 14
727 145 0 0.0 63 35 16
728 145 0 0.0 63 33 18
729 145 0 0.0 60 30 20
730 146 0 0.0 87 27 28
731 146 0 0.0 87 25 28
732 146 0 0.0 90 23 29
733 146 0 0.0 89 21 30
734 146 0 0.0 92 18 33
735 147 0 0.0 28 48 89
736 147 0 0.0 31 48 87
737 147 0 0.0 28 48 86
738 147 0 0.0 27 47 88
739 147 0 0.0 27 46 90
740 148 0 0.0 10 67 62
741 148 0 0.0 7 67 62
742 148 0 0.0 8 64 62
743 148 0 0.0 8 65 63
744 148 0 0.0 6 63 64
745 149 0 0.0 69 8 67
746 149 0 0.0 72 11 67
747 149 0 0.0 69 14 68
748 149 0 0.0 72 17 68
749 149 0 0.0 73 17 67
750 150 0 0.0 95 77 88
751 150 0 0.0 92 80 91
752 150 0 0.0 89 78 88
753 150 0 0.0 91 80 86
754 150 0 0.0 88 82 84
755 151 0 0.0 3 47 3
756 151 0 0.0 3 50 1
757 151 0 0.0 2 50 3
758 151 0 0.0 99 48 5
759 151 0 0.0 2 45 4
760 152 0 0.0 73 86 30
761 152 0 0.0 72 87 29
762 152 0 0.0 71 84 28
763 152 0 0.0 71 84 29
764 152 0 0.0 70 86 29
765 153 0 0.0 59 76 53
766 153 0 0.0 62 74 53
767 153 0 0.0 59 72 54
768 153 0 0.0 57 71 56
769 153 0 0.0 54 73 54
770 154 0 0.0 30 75 59
771 154 0 0.0 27 76 57
772 154 0 0.0 24 74 54
773 154 0 0.0 24 71 57
774 154 0 0.0 21 70 56
775 155 0 0.0 75 35 16
776 155 0 0.0 74 33 17
777 155 0 0.0 74 32 14
778 155 0 0.0 76 33 14
779 155 0 0.0 79 30 12
780 156 0 0.0 1 95 47
781 156 0 0.0 4 98 44
782 156 0 0.0 2 1 41
783 156 0 0.0 2 4 38
784 156 0 0.0 0 2 39
785 157 0 0.0 54 13 74
786 157 0 0.0 53 13 71
787 157 0 0.0 55 13 74
788 157 0 0.0 56 11 71
789 157 0 0.0 54 8 72
790 158 0 0.0 87 15 3
791 158 0 0.0 88 16 6
792 158 0 0.0 85 14 4
793 158 0 0.0 86 16 4
794 158 0 0.0 89 13 5
795 159 0 0.0 34 41 93
796 159 0 0.0 37 40 92
797 159 0 0.0 35 37 89
798 159 0 0.0 32 37 88
799 159 0 0.0 30 39 87
800 160 0 0.0 85 39 32
801 160 0 0.0 85 40 29
802 160 0 0.0 88 38 31
803 160 0 0.0 86 38 30
804 160 0 0.0 87 38 30
805 161 0 0.0 96 96 41
806 161 0 0.0 97 97 43
807 161 0 0.0 99 97 46
808 161 0 0.0 97 95 49
809 161 0 0.0 99 92 51
810 162 0 0.0 71 36 26
811 162 0 0.0 73 34 29
812 162 0 0.0 72 35 30
813 162 0 0.0 75 33 27
814 162 0 0.0 73 35 30
815 163 0 0.0 67 74 43
816 163 0 0.0 65 74 45
817 163 0 0.0 62 72 45
818 163 0 0.0 59 75 48
819 163 0 0.0 61 76 50
820 164 0 0.0 61 49 9
821 164 0 0.0 64 50 6
822 164 0 0.0 63 48 7
823 164 0 0.0 61 45 7
824 164 0 0.0 60 42 5
825 165 0 0.0 78 37 22
826 165 0 0.0 81 40 23
827 165 0 0.0 79 38 20
828 165 0 0.0 78 39 18
829 165 0 0.0 79 36 17
830 166 0 0.0 43 42 29
831 166 0 0.0 45 45 30
832 166 0 0.0 42 42 31
833 166 0 0.0 42 45 30
834 166 0 0.0 44 45 28
835 167 0 0.0 24 66 14
836 167 0 0.0 21 65 17
837 167 0 0.0 23 62 15
838 167 0 0.0 23 60 12
839 167 0 0.0 20 63 9
840 168 0 0.0 30 39 97
841 168 0 0.0 33 38 98
842 168 0 0.0 32 37 99
843 168 0 0.0 34 34 96
844 168 0 0.0 36 37 97
845 169 0 0.0 71 81 13
846 169 0 0.0 70 84 10
847 169 0 0.0 71 84 12
848 169 0 0.0 72 85 11
849 169 0 0.0 71 84 11
850 170 0 0.0 7 47 6
851 170 0 0.0 5 47 7
852 170 0 0.0 8 47 8
853 170 0 0.0 6 46 7
854 170 0 0.0 8 44 5
855 171 0 0.0 53 90 73
856 171 0 0.0 56 92 75
857 171 0 0.0 56 92 77
858 171 0 0.0 59 91 78
859 171 0 0.0 56 93 79
860 172 0 0.0 1 28 2
861 172 0 0.0 98 25 2
862 172 0 0.0 96 25 4
863 172 0 0.0 93 23 6
864 172 0 0.0 92 22 3
865 173 0 0.0 11 47 8
866 173 0 0.0 14 48 8
867 173 0 0.0 15 45 5
868 173 0 0.0 16 48 8
869 173 0 0.0 19 46 11
870 174 0 0.0 1 87 58
871 174 0 0.0 2 86 55
872 174 0 0.0 3 83 55
873 174 0 0.0 6 86 52
874 174 0 0.0 7 89 51
875 175 0 0.0 46 46 14
876 175 0 0.0 47 43 11
877 175 0 0.0 47 45 11
878 175 0 0.0 50 43 9
879 175 0 0.0 50 41 9
880 176 0 0.0 47 65 27
881 176 0 0.0 45 65 28
882 176 0 0.0 46 64 27
883 176 0 0.0 46 65 27
884 176 0 0.0 49 64 27
885 177 0 0.0 11 87 70
886 177 0 0.0 14 90 70
887 177 0 0.0 17 88 72
888 177 0 0.0 17 87 72
889 177 0 0.0 16 85 69
890 178 0 0.0 9 84 23
891 178 0 0.0 7 82 23
892 178 0 0.0 5 80 20
893 178 0 0.0 7 81 22
894 178 0 0.0 7 80 24
895 179 0 0.0 68 72 80
896 179 0 0.0 68 70 78
897 179 0 0.0 69 69 78
898 179 0 0.0 67 69 76
899 179 0 0.0 64 69 75
900 180 0 0.0 14 0 27
901 180 0 0.0 11 98 26
902 180 0 0.0 11 0 29
903 180 0 0.0 9 2 27
904 180 0 0.0 7 3 30
905 181 0 0.0 59 9 28
906 181 0 0.0 62 8 26
907 181 0 0.0 63 11 23
908 181 0 0.0 60 14 22
909 181 0 0.0 60 15 20
910 182 0 0.0 88 6 18
911 182 0 0.0 90 4 21
912 182 0 0.0 90 2 19
913 182 0 0.0 87 2 18
914 182 0 0.0 87 2 21
915 183 0 0.0 18 47 25
916 183 0 0.0 21 45 25
917 183 0 0.0 24 47 27
918 183 0 0.0 27 45 28
919 183 0 0.0 26 44 27
920 184 0 0.0 44 45 9
921 184 0 0.0 46 45 12
922 184 0 0.0 49 45 14
923 184 0 0.0 49 45 15
924 184 0 0.0 46 48 12
925 185 0 0.0 75 64 79
926 185 0 0.0 72 62 77
927 185 0 0.0 74 65 78
928 185 0 0.0 76 65 79
929 185 0 0.0 74 63 78
930 186 0 0.0 91 82 25
931 186 0 0.0 92 81 24
932 186 0 0.0 89 78 24
933 186 0 0.0 90 75 25
934 186 0 0.0 93 73 27
935 187 0 0.0 62 10 95
936 187 0 0.0 65 9 95
937 187 0 0.0 64 10 97
938 187 0 0.0 64 11 97
939 187 0 0.0 65 10 94
940 188 0 0.0 58 49 65
941 188 0 0.0 61 52 66
942 188 0 0.0 60 53 63
943 188 0 0.0 58 56 61
944 188 0 0.0 59 53 58
945 189 0 0.0 73 24 36
946 189 0 0.0 74 23 36
947 189 0 0.0 77 21 33
948 189 0 0.0 80 20 34
949 189 0 0.0 80 22 31
950 190 0 0.0 82 3 86
951 190 0 0.0 81 2 84
952 190 0 0.0 83 0 82
953 190 0 0.0 86 1 80
954 190 0 0.0 85 1 80
955 191 0 0.0 94 23 84
956 191 0 0.0 95 23 84
957 191 0 0.0 93 20 81
958 191 0 0.0 95 18 78
959 191 0 0.0 93 21 78
960 192 0 0.0 26 28 23
961 192 0 0.0 27 27 20
962 192 0 0.0 28 26 22
963 192 0 0.0 27 23 20
964 192 0 0.0 26 20 20
965 193 0 0.0 85 71 78
966 193 0 0.0 82 70 79
967 193 0 0.0 84 68 80
968 193 0 0.0 85 71 80
969 193 0 0.0 82 74 83
970 194 0 0.0 85 48 76
971 194 0 0.0 87 49 74
972 194 0 0.0 86 49 76
973 194 0 0.0 83 52 79
974 194 0 0.0 82 55 77
975 195 0 0.0 35 87 57
976 195 0 0.0 36 86 57
977 195 0 0.0 33 84 57
978 195 0 0.0 31 87 60
979 195 0 0.0 30 87 62
980 196 0 0.0 84 28 24
981 196 0 0.0 84 27 27
982 196 0 0.0 87 26 26
983 196 0 0.0 89 29 26
984 196 0 0.0 92 26 28
985 197 0 0.0 6 53 15
986 197 0 0.0 6 56 13
987 197 0 0.0 8 54 15
988 197 0 0.0 11 55 16
989 197 0 0.0 10 56 13
990 198 0 0.0 77 72 41
991 198 0 0.0 74 74 39
992 198 0 0.0 76 75 40
993 198 0 0.0 75 72 42
994 198 0 0.0 72 74 43
995 199 0 0.0 58 13 72
996 199 0 0.0 61 15 71
997 199 0 0.0 60 12 72
998 199 0 0.0 59 11 73
999 199 0 0.0 60 9 73
1000 200 0 0.0 85 3 98
1001 200 0 0.0 82 5 0
1002 200 0 0.0 84 2 3
1003 200 0 0.0 87 0 0
1004 200 0 0.0 87 1 1
1005 201 0 0.0 47 69 52
1006 201 0 0.0 45 66 55
1007 201 0 0.0 46 63 52
1008 201 0 0.0 47 60 55
1009 201 0 0.0 50 59 54
1010 202 0 0.0 25 66 14
1011 202 0 0.0 28 65 15
1012 202 0 0.0 27 65 18
1013 202 0 0.0 26 68 20
1014 202 0 0.0 29 66 18
1015 203 0 0.0 68 96 14
1016 203 0 0.0 68 96 16
1017 203 0 0.0 67 96 19
1018 203 0 0.0 64 95 17
1019 203 0 0.0 67 97 14
1020 204 0 0.0 27 1 8
1021 204 0 0.0 30 0 10
1022 204 0 0.0 28 0 10
1023 204 0 0.0 31 1 9
1024 204 0 0.0 28 1 12
1025 205 0 0.0 75 93 31
1026 205 0 0.0 75 92 29
1027 205 0 0.0 73 92 30
1028 205 0 0.0 76 95 27
1029 205 0 0.0 74 95 26
1030 206 0 0.0 86 79 97
1031 206 0 0.0 85 82 97
1032 206 0 0.0 86 83 99
1033 206 0 0.0 83 80 96
1034 206 0 0.0 85 77 98
1035 207 0 0.0 97 6 83
1036 207 0 0.0 98 8 84
1037 207 0 0.0 1 11 83
1038 207 0 0.0 1 8 83
1039 207 0 0.0 3 6 80
1040 208 0 0.0 31 22 66
1041 208 0 0.0 31 19 67
1042 208 0 0.0 31 19 65
1043 208 0 0.0 28 21 66
1044 208 0 0.0 26 19 66
1045 209 0 0.0 11 56 5
1046 209 0 0.0 8 53 8
1047 209 0 0.0 8 52 6
1048 209 0 0.0 9 49 7
1049 209 0 0.0 12 46 6
1050 210 0 0.0 67 96 48
1051 210 0 0.0 68 93 48
1052 210 0 0.0 70 95 50
1053 210 0 0.0 73 94 53
1054 210 0 0.0 76 93 51
1055 211 0 0.0 42 43 38
1056 211 0 0.0 42 43 35
1057 211 0 0.0 39 40 36
1058 211 0 0.0 40 38 33
1059 211 0 0.0 39 35 34
1060 212 0 0.0 30 58 21
1061 212 0 0.0 33 59 21
1062 212 0 0.0 32 60 22
1063 212 0 0.0 35 58 24
1064 212 0 0.0 35 55 25
1065 213 0 0.0 30 79 53
1066 213 0 0.0 31 81 54
1067 213 0 0.0 32 79 54
1068 213 0 0.0 31 82 53
1069 213 0 0.0 34 79 56
1070 214 0 0.0 0 99 80
1071 214 0 0.0 2 98 80
1072 214 0 0.0 1 0 80
1073 214 0 0.0 98 99 81
1074 214 0 0.0 99 96 84
1075 215 0 0.0 78 64 26
1076 215 0 0.0 78 66 24
1077 215 0 0.0 81 67 22
1078 215 0 0.0 80 64 24
1079 215 0 0.0 80 66 27
1080 216 0 0.0 44 60 6
1081 216 0 0.0 42 58 7
1082 216 0 0.0 42 55 9
1083 216 0 0.0 42 54 12
1084 216 0 0.0 44 57 15
1085 217 0 0.0 94 82 0
1086 217 0 0.0 94 84 97
1087 217 0 0.0 96 84 95
1088 217 0 0.0 95 86 97
1089 217 0 0.0 93 84 95
1090 218 0 0.0 8 6 90
1091 218 0 0.0 9 3 93
1092 218 0 0.0 6 2 96
1093 218 0 0.0 6 0 99
1094 218 0 0.0 7 3 0
1095 219 0 0.0 8 4 16
1096 219 0 0.0 10 6 17
1097 219 0 0.0 9 4 19
1098 219 0 0.0 12 1 19
1099 219 0 0.0 10 4 22
1100 220 0 0.0 44 42 75
1101 220 0 0.0 41 45 73
1102 220 0 0.0 40 44 75
1103 220 0 0.0 39 47 78
1104 220 0 0.0 41 48 80
1105 221 0 0.0 48 20 29
1106 221 0 0.0 50 23 28
1107 221 0 0.0 52 26 26
1108 221 0 0.0 52 27 26
1109 221 0 0.0 51 26 24
1110 222 0 0.0 91 54 70
1111 222 0 0.0 93 55 73
1112 222 0 0.0 92 58 71
1113 222 0 0.0 91 59 74
1114 222 0 0.0 93 59 71
1115 223 0 0.0 21 51 84
1116 223 0 0.0 24 51 86
1117 223 0 0.0 23 48 85
1118 223 0 0.0 23 48 84
1119 223 0 0.0 26 51 87
1120 224 0 0.0 18 62 50
1121 224 0 0.0 15 65 49
1122 224 0 0.0 18 62 48
1123 224 0 0.0 20 63 50
1124 224 0 0.0 22 63 49
1125 225 0 0.0 17 46 92
1126 225 0 0.0 17 45 92
1127 225 0 0.0 14 47 95
1128 225 0 0.0 17 48 93
1129 225 0 0.0 19 49 93
1130 226 0 0.0 60 22 40
1131 226 0 0.0 60 25 40
1132 226 0 0.0 62 27 43
1133 226 0 0.0 64 25 41
1134 226 0 0.0 61 28 39
1135 227 0 0.0 42 28 9
1136 227 0 0.0 40 29 9
1137 227 0 0.0 37 29 8
1138 227 0 0.0 40 30 9
1139 227 0 0.0 40 31 6
1140 228 0 0.0 11 83 59
1141 228 0 0.0 10 86 62
1142 228 0 0.0 8 87 62
1143 228 0 0.0 5 89 61
1144 228 0 0.0 3 91 58
1145 229 0 0.0 4 81 14
1146 229 0 0.0 2 84 14
1147 229 0 0.0 99 85 14
1148 229 0 0.0 2 85 15
1149 229 0 0.0 99 86 16
1150 230 0 0.0 29 17 80
1151 230 0 0.0 32 15 80
1152 230 0 0.0 32 17 79
1153 230 0 0.0 34 17 78
1154 230 0 0.0 36 19 79
1155 231 0 0.0 52 63 7
1156 231 0 0.0 51 61 10
1157 231 0 0.0 51 60 7
1158 231 0 0.0 50 60 4
1159 231 0 0.0 47 57 7
1160 232 0 0.0 28 74 86
1161 232 0 0.0 27 77 85
1162 232 0 0.0 27 80 87
1163 232 0 0.0 29 80 89
1164 232 0 0.0 31 79 90
1165 233 0 0.0 70 73 89
1166 233 0 0.0 69 76 92
1167 233 0 0.0 67 74 93
1168 233 0 0.0 69 72 95
1169 233 0 0.0 66 70 96
1170 234 0 0.0 89 15 53
1171 234 0 0.0 91 17 54
1172 234 0 0.0 90 15 57
1173 234 0 0.0 91 15 60
1174 234 0 0.0 88 16 63
1175 235 0 0.0 18 75 81
1176 235 0 0.0 15 77 81
1177 235 0 0.0 16 74 83
1178 235 0 0.0 13 75 81
1179 235 0 0.0 13 73 83
1180 236 0 0.0 30 28 67
1181 236 0 0.0 30 29 64
1182 236 0 0.0 28 26 62
1183 236 0 0.0 25 26 61
1184 236 0 0.0 27 25 62
1185 237 0 0.0 9 50 70
1186 237 0 0.0 7 48 70
1187 237 0 0.0 7 48 68
1188 237 0 0.0 5 49 65
1189 237 0 0.0 4 49 67
1190 238 0 0.0 1 91 37
1191 238 0 0.0 2 90 34
1192 238 0 0.0 4 89 31
1193 238 0 0.0 1 88 28
1194 238 0 0.0 1 90 30
1195 239 0 0.0 53 7 91
1196 239 0 0.0 54 5 93
1197 239 0 0.0 57 6 95
1198 239 0 0.0 56 7 97
1199 239 0 0.0 56 9 98
1200 240 0 0.0 86 36 52
1201 240 0 0.0 86 34 54
1202 240 0 0.0 88 32 56
1203 240 0 0.0 87 34 57
1204 240 0 0.0 88 36 60
1205 241 0 0.0 83 7 17
1206 241 0 0.0 85 8 15
1207 241 0 0.0 84 11 13
1208 241 0 0.0 86 9 16
1209 241 0 0.0 83 6 14
1210 242 0 0.0 29 79 15
1211 242 0 0.0 32 78 18
1212 242 0 0.0 33 77 19
1213 242 0 0.0 30 78 17
1214 242 0 0.0 31 80 15
1215 243 0 0.0 36 95 29
1216 243 0 0.0 35 94 27
1217 243 0 0.0 33 97 29
1218 243 0 0.0 32 98 31
1219 243 0 0.0 34 96 32
1220 244 0 0.0 14 63 41
1221 244 0 0.0 12 66 39
1222 244 0 0.0 9 66 42
1223 244 0 0.0 11 67 41
1224 244 0 0.0 13 69 38
1225 245 0 0.0 9 78 61
1226 245 0 0.0 6 80 63
1227 245 0 0.0 3 77 61
1228 245 0 0.0 6 76 63
1229 245 0 0.0 4 77 61
1230 246 0 0.0 19 30 66
1231 246 0 0.0 20 30 65
1232 246 0 0.0 17 30 63
1233 246 0 0.0 14 32 62
1234 246 0 0.0 12 32 64
1235 247 0 0.0 52 54 19
1236 247 0 0.0 49 55 18
1237 247 0 0.0 49 53 15
1238 247 0 0.0 46 56 13
1239 247 0 0.0 45 55 10
1240 248 0 0.0 4 55 98
1241 248 0 0.0 1 55 97
1242 248 0 0.0 0 53 0
1243 248 0 0.0 97 52 3
1244 248 0 0.0 95 54 6
1245 249 0 0.0 32 93 46
1246 249 0 0.0 29 90 43
1247 249 0 0.0 32 91 45
1248 249 0 0.0 32 93 47
1249 249 0 0.0 30 90 44
1250 250 1 0.0 93 83 94
1251 250 1 0.0 92 83 93
1252 250 1 0.0 89 83 95
1253 250 1 0.0 88 82 95
1254 250 1 0.0 91 79 96
1255 251 1 0.0 39 94 39
1256 251 1 0.0 36 97 36
1257 251 1 0.0 37 0 39
1258 251 1 0.0 39 1 41
1259 251 1 0.0 38 1 40
1260 252 1 0.0 17 13 21
1261 252 1 0.0 15 13 20
1262 252 1 0.0 12 15 18
1263 252 1 0.0 14 15 20
1264 252 1 0.0 15 17 20
1265 253 1 0.0 58 48 28
1266 253 1 0.0 58 49 25
1267 253 1 0.0 56 48 24
1268 253 1 0.0 57 51 23
1269 253 1 0.0 60 54 26
1270 254 1 0.0 28 19 41
1271 254 1 0.0 29 16 43
1272 254 1 0.0 28 13 41
1273 254 1 0.0 29 10 42
1274 254 1 0.0 31 9 43
1275 255 1 0.0 41 66 81
1276 255 1 0.0 40 64 83
1277 255 1 0.0 42 65 86
1278 255 1 0.0 42 66 88
1279 255 1 0.0 40 69 91
1280 256 1 0.0 4 43 61
1281 256 1 0.0 5 42 62
1282 256 1 0.0 3 45 61
1283 256 1 0.0 1 45 58
1284 256 1 0.0 0 46 55
1285 257 1 0.0 25 21 61
1286 257 1 0.0 26 21 61
1287 257 1 0.0 25 18 60
1288 257 1 0.0 22 21 60
1289 257 1 0.0 24 23 63
1290 258 1 0.0 21 30 86
1291 258 1 0.0 22 28 84
1292 258 1 0.0 20 28 83
1293 258 1 0.0 18 30 85
1294 258 1 0.0 17 29 87
1295 259 1 0.0 14 17 67
1296 259 1 0.0 12 17 68
1297 259 1 0.0 14 17 70
1298 259 1 0.0 12 16 73
1299 259 1 0.0 13 19 75
1300 260 1 0.0 35 31 26
1301 260 1 0.0 38 30 25
1302 260 1 0.0 38 32 24
1303 260 1 0.0 37 31 25
1304 260 1 0.0 34 28 28
1305 261 1 0.0 75 35 31
1306 261 1 0.0 75 34 31
1307 261 1 0.0 76 33 31
1308 261 1 0.0 75 30 30
1309 261 1 0.0 77 33 30
1310 262 1 0.0 77 41 88
1311 262 1 0.0 74 38 91
1312 262 1 0.0 73 36 91
1313 262 1 0.0 70 39 94
1314 262 1 0.0 68 41 93
1315 263 1 0.0 67 48 8
1316 263 1 0.0 66 51 11
1317 263 1 0.0 69 49 10
1318 263 1 0.0 72 51 12
1319 263 1 0.0 70 49 15
1320 264 1 0.0 59 77 33
1321 264 1 0.0 62 80 33
1322 264 1 0.0 59 81 30
1323 264 1 0.0 60 82 32
1324 264 1 0.0 63 83 34
1325 265 1 0.0 47 92 21
1326 265 1 0.0 44 91 22
1327 265 1 0.0 42 89 20
1328 265 1 0.0 39 88 23