ITEM: TIMESTEP
0
ITEM: NUMBER OF ATOMS
6000
ITEM: BOX BOUNDS pp pp pp
0 100
0 100
0 100
ITEM: ATOMS id type mol x y z bP
0 0 0 42 36 27 -1
1 0 0 44 39 27 -1
2 0 0 44 43 25 -1
3 0 0 42 41 23 -1
4 0 0 40 43 24 2172
5 0 1 9 63 10 -1
6 0 1 6 60 8 -1
7 0 1 10 61 8 -1
8 0 1 12 62 6 -1
9 0 1 12 61 7 4746
10 0 2 84 14 12 -1
11 0 2 81 12 10 -1
12 0 2 81 8 13 -1
13 0 2 85 9 14 -1
14 0 2 88 13 15 -1
15 0 3 0 83 64 5173
16 0 3 3 81 62 5347
17 0 3 3 82 57 -1
18 0 3 4 83 59 -1
19 0 3 6 83 62 -1
20 0 4 58 99 37 -1
21 0 4 58 97 40 -1
22 0 4 57 96 35 -1
23 0 4 56 91 35 -1
24 0 4 55 94 33 -1
25 0 5 27 35 23 -1
26 0 5 29 37 21 1453
27 0 5 29 40 19 5948
28 0 5 27 39 17 -1
29 0 5 23 40 17 5775
30 0 6 44 75 30 -1
31 0 6 47 73 33 -1
32 0 6 48 72 28 -1
33 0 6 47 71 27 2053
34 0 6 45 71 31 2050
35 0 7 22 18 25 -1
36 0 7 21 16 22 -1
37 0 7 20 19 19 1915
38 0 7 17 17 17 1804
39 0 7 17 18 15 -1
40 0 8 39 74 5 -1
41 0 8 39 78 4 -1
42 0 8 38 79 7 -1
43 0 8 39 82 7 -1
44 0 8 38 78 10 -1
45 0 9 98 86 80 -1
46 0 9 99 89 82 -1
47 0 9 3 87 82 -1
48 0 9 4 88 80 -1
49 0 9 3 90 82 -1
50 0 10 54 19 76 -1
51 0 10 52 20 75 4350
52 0 10 55 21 73 -1
53 0 10 56 24 70 -1
54 0 10 54 26 71 -1
55 0 11 24 25 5 -1
56 0 11 24 21 5 -1
57 0 11 24 22 3 -1
58 0 11 25 22 7 -1
59 0 11 22 24 5 -1
60 0 12 22 67 39 -1
61 0 12 22 70 42 -1
62 0 12 18 70 40 1781
63 0 12 19 75 41 -1
64 0 12 16 74 45 1780
65 0 13 54 78 22 -1
66 0 13 57 76 20 -1
67 0 13 54 77 22 -1
68 0 13 49 76 21 -1
69 0 13 51 77 24 -1
70 0 14 70 37 22 -1
71 0 14 67 39 25 -1
72 0 14 66 38 24 -1
73 0 14 69 38 28 -1
74 0 14 66 38 32 -1
75 0 15 47 23 35 -1
76 0 15 44 25 33 -1
77 0 15 43 27 35 -1
78 0 15 45 26 36 -1
79 0 15 43 24 39 -1
80 0 16 96 52 51 -1
81 0 16 93 49 53 -1
82 0 16 89 49 55 -1
83 0 16 87 47 51 -1
84 0 16 83 44 50 -1
85 0 17 88 87 59 -1
86 0 17 90 85 63 1998
87 0 17 86 85 60 -1
88 0 17 91 86 61 1996
89 0 17 93 85 57 1995
90 0 18 76 49 12 -1
91 0 18 76 50 12 2402
92 0 18 72 50 10 2400
93 0 18 72 48 14 4766
94 0 18 75 46 16 -1
95 0 19 27 79 44 -1
96 0 19 26 76 41 -1
97 0 19 24 74 38 -1
98 0 19 24 74 36 -1
99 0 19 24 76 35 -1
100 0 20 26 10 19 -1
101 0 20 24 9 17 -1
102 0 20 27 10 15 -1
103 0 20 23 13 15 -1
104 0 20 24 14 14 -1
105 0 21 30 89 29 -1
106 0 21 25 88 29 -1
107 0 21 27 91 26 5291
108 0 21 30 93 27 -1
109 0 21 28 90 28 -1
110 0 22 88 87 34 -1
111 0 22 89 88 33 -1
112 0 22 89 89 28 5527
113 0 22 86 87 30 -1
114 0 22 83 86 33 -1
115 0 23 80 49 10 -1
116 0 23 79 47 6 -1
117 0 23 80 46 6 -1
118 0 23 84 47 8 -1
119 0 23 85 44 6 -1
120 0 24 21 24 64 -1
121 0 24 24 26 63 -1
122 0 24 21 27 65 -1
123 0 24 22 30 65 -1
124 0 24 22 31 65 -1
125 0 25 74 2 91 -1
126 0 25 76 1 91 -1
127 0 25 75 96 92 -1
128 0 25 72 97 89 -1
129 0 25 70 96 93 -1
130 0 26 44 64 7 -1
131 0 26 45 67 9 -1
132 0 26 45 71 9 -1
133 0 26 42 72 5 4400
134 0 26 44 74 5 5201
135 0 27 7 96 17 -1
136 0 27 3 98 15 -1
137 0 27 0 98 17 4948
138 0 27 3 99 13 4949
139 0 27 2 0 13 4947
140 0 28 40 57 67 -1
141 0 28 41 58 67 -1
142 0 28 41 56 71 -1
143 0 28 44 55 74 -1
144 0 28 44 58 74 -1
145 0 29 98 17 54 -1
146 0 29 99 18 49 -1
147 0 29 98 16 50 -1
148 0 29 94 17 47 -1
149 0 29 98 16 45 -1
150 0 30 6 19 13 -1
151 0 30 10 20 10 -1
152 0 30 8 19 8 -1
153 0 30 4 20 11 -1
154 0 30 4 16 12 -1
155 0 31 77 11 5 -1
156 0 31 75 9 4 -1
157 0 31 76 11 5 -1
158 0 31 75 14 7 -1
159 0 31 74 17 6 -1
160 0 32 2 28 15 5372
161 0 32 5 32 15 -1
162 0 32 4 35 15 -1
163 0 32 9 34 14 -1
164 0 32 13 32 16 1615
165 0 33 87 66 48 -1
166 0 33 88 63 47 -1
167 0 33 85 60 49 -1
168 0 33 89 61 50 -1
169 0 33 90 61 46 2285
170 0 34 59 63 63 5135
171 0 34 62 66 65 -1
172 0 34 60 68 63 -1
173 0 34 56 66 64 -1
174 0 34 57 67 62 -1
175 0 35 99 86 99 -1
176 0 35 96 84 98 -1
177 0 35 96 81 94 -1
178 0 35 96 78 90 -1
179 0 35 96 78 87 1383
180 0 36 19 96 21 -1
181 0 36 20 94 22 -1
182 0 36 20 95 25 -1
183 0 36 19 95 25 1253
184 0 36 16 98 24 -1
185 0 37 72 25 5 -1
186 0 37 71 25 7 -1
187 0 37 75 26 9 5767
188 0 37 73 22 8 -1
189 0 37 76 20 10 -1
190 0 38 97 91 32 5155
191 0 38 94 89 34 5154
192 0 38 93 90 38 -1
193 0 38 91 94 38 -1
194 0 38 89 93 35 -1
195 0 39 13 82 60 -1
196 0 39 14 85 61 -1
197 0 39 15 81 63 -1
198 0 39 16 84 64 1329
199 0 39 15 82 62 -1
200 0 40 14 36 23 5593
201 0 40 18 34 22 -1
202 0 40 22 35 19 -1
203 0 40 25 36 16 5772
204 0 40 25 39 15 -1
205 0 41 22 73 70 -1
206 0 41 20 72 73 2148
207 0 41 23 70 75 2149
208 0 41 26 73 74 -1
209 0 41 24 73 75 -1
210 0 42 2 3 69 -1
211 0 42 2 6 72 1827
212 0 42 5 4 73 -1
213 0 42 6 2 74 -1
214 0 42 7 3 78 -1
215 0 43 16 28 15 -1
216 0 43 20 28 15 -1
217 0 43 17 29 17 1778
218 0 43 14 30 13 -1
219 0 43 18 31 15 1616
220 0 44 40 82 8 -1
221 0 44 43 81 6 1458
222 0 44 45 81 10 -1
223 0 44 43 78 11 -1
224 0 44 41 77 10 2489
225 0 45 77 86 30 2381
226 0 45 78 84 34 2384
227 0 45 77 81 36 -1
228 0 45 75 83 39 4364
229 0 45 76 84 40 -1
230 0 46 9 29 93 -1
231 0 46 8 28 93 -1
232 0 46 8 25 97 -1
233 0 46 11 25 96 -1
234 0 46 13 22 98 -1
235 0 47 89 65 46 1911
236 0 47 90 66 41 2289
237 0 47 89 70 41 -1
238 0 47 91 68 42 5598
239 0 47 93 70 40 4290
240 0 48 4 91 48 1693
241 0 48 4 90 53 -1
242 0 48 99 91 53 -1
243 0 48 98 93 49 1691
244 0 48 99 95 45 1976
245 0 49 41 14 21 -1
246 0 49 39 12 22 -1
247 0 49 40 15 25 -1
248 0 49 41 14 29 -1
249 0 49 41 15 25 -1
250 0 50 51 23 49 4834
251 0 50 50 23 44 -1
252 0 50 50 27 45 4342
253 0 50 51 25 46 -1
254 0 50 48 26 48 -1
255 0 51 89 36 68 -1
256 0 51 86 37 66 -1
257 0 51 83 41 66 -1
258 0 51 87 39 68 4653
259 0 51 86 43 66 -1
260 0 52 75 65 91 -1
261 0 52 78 67 88 -1
262 0 52 79 67 90 -1
263 0 52 76 66 94 -1
264 0 52 75 62 92 -1
265 0 53 97 62 65 4759
266 0 53 0 64 68 -1
267 0 53 99 65 68 -1
268 0 53 1 65 67 -1
269 0 53 5 65 68 -1
270 0 54 28 49 45 -1
271 0 54 25 49 45 -1
272 0 54 23 46 47 -1
273 0 54 24 47 46 -1
274 0 54 23 44 46 -1
275 0 55 96 92 77 -1
276 0 55 94 93 79 -1
277 0 55 94 97 76 -1
278 0 55 93 0 78 -1
279 0 55 93 4 78 -1
280 0 56 80 99 9 1565
281 0 56 84 97 11 1986
282 0 56 80 99 11 2187
283 0 56 84 99 12 2189
284 0 56 82 98 15 2188
285 0 57 66 61 66 -1
286 0 57 63 61 68 -1
287 0 57 67 62 66 -1
288 0 57 67 67 67 -1
289 0 57 64 64 70 -1
290 0 58 77 26 12 -1
291 0 58 78 28 14 -1
292 0 58 81 26 15 -1
293 0 58 83 26 15 -1
294 0 58 80 26 13 -1
295 0 59 72 32 69 -1
296 0 59 69 34 70 -1
297 0 59 67 35 70 -1
298 0 59 63 38 70 -1
299 0 59 63 38 71 -1
300 0 60 59 15 95 4465
301 0 60 59 14 94 4462
302 0 60 58 14 94 -1
303 0 60 58 13 95 -1
304 0 60 57 15 95 4461
305 0 61 91 86 25 -1
306 0 61 87 85 27 -1
307 0 61 90 86 31 -1
308 0 61 93 89 32 -1
309 0 61 88 89 31 -1
310 0 62 80 66 73 -1
311 0 62 81 65 73 -1
312 0 62 80 61 73 -1
313 0 62 79 60 74 5901
314 0 62 81 58 70 -1
315 0 63 62 1 85 -1
316 0 63 61 0 84 -1
317 0 63 65 1 83 -1
318 0 63 64 2 85 -1
319 0 63 65 5 84 -1
320 0 64 27 83 42 -1
321 0 64 26 78 41 -1
322 0 64 28 76 43 -1
323 0 64 31 75 40 -1
324 0 64 31 75 42 -1
325 0 65 2 76 30 -1
326 0 65 1 79 34 -1
327 0 65 3 77 32 -1
328 0 65 2 73 35 4273
329 0 65 2 75 39 -1
330 0 66 27 54 49 5686
331 0 66 31 53 52 -1
332 0 66 28 55 55 -1
333 0 66 27 55 53 -1
334 0 66 22 56 52 -1
335 0 67 93 67 34 -1
336 0 67 96 65 34 -1
337 0 67 0 64 37 -1
338 0 67 3 61 38 -1
339 0 67 3 60 36 -1
340 0 68 44 34 58 -1
341 0 68 42 31 61 -1
342 0 68 45 33 62 -1
343 0 68 49 34 60 -1
344 0 68 48 35 62 -1
345 0 69 24 88 80 -1
346 0 69 25 88 82 -1
347 0 69 22 85 83 -1
348 0 69 26 85 86 -1
349 0 69 24 83 84 -1
350 0 70 29 90 19 -1
351 0 70 26 90 20 1314
352 0 70 22 91 21 -1
353 0 70 20 88 22 -1
354 0 70 22 86 26 -1
355 0 71 60 20 95 -1
356 0 71 57 20 95 -1
357 0 71 58 19 95 -1
358 0 71 54 17 93 -1
359 0 71 54 19 94 -1
360 0 72 31 97 68 -1
361 0 72 31 93 68 -1
362 0 72 31 96 64 -1
363 0 72 31 97 62 4877
364 0 72 34 95 59 -1
365 0 73 30 40 73 1358
366 0 73 31 42 74 -1
367 0 73 35 40 74 4800
368 0 73 32 43 71 -1
369 0 73 30 43 70 -1
370 0 74 61 74 35 -1
371 0 74 61 72 33 -1
372 0 74 58 75 34 -1
373 0 74 58 74 29 -1
374 0 74 61 77 29 -1
375 0 75 18 63 23 -1
376 0 75 16 60 23 -1
377 0 75 20 61 26 5866
378 0 75 21 59 28 -1
379 0 75 21 55 29 -1
380 0 76 32 0 81 -1
381 0 76 34 4 81 -1
382 0 76 33 2 80 -1
383 0 76 34 0 76 -1
384 0 76 33 1 71 1678
385 0 77 28 43 85 -1
386 0 77 30 41 82 -1
387 0 77 31 38 79 -1
388 0 77 32 42 77 -1
389 0 77 33 39 77 -1
390 0 78 12 3 49 -1
391 0 78 8 3 46 -1
392 0 78 9 5 49 -1
393 0 78 8 6 53 -1
394 0 78 7 8 54 -1
395 0 79 56 5 14 5634
396 0 79 60 5 11 -1
397 0 79 62 4 10 -1
398 0 79 58 1 10 -1
399 0 79 56 5 11 5630
400 0 80 28 30 76 -1
401 0 80 27 33 75 -1
402 0 80 29 29 77 -1
403 0 80 28 33 75 -1
404 0 80 30 33 74 -1
405 0 81 24 36 35 -1
406 0 81 26 36 31 -1
407 0 81 29 32 32 -1
408 0 81 28 35 32 -1
409 0 81 27 30 32 5330
410 0 82 93 75 77 -1
411 0 82 96 72 77 -1
412 0 82 94 76 75 -1
413 0 82 93 79 79 -1
414 0 82 94 77 77 -1
415 0 83 76 4 4 2247
416 0 83 79 5 6 -1
417 0 83 76 6 5 -1
418 0 83 76 4 9 -1
419 0 83 73 3 6 -1
420 0 84 28 71 81 -1
421 0 84 29 72 81 -1
422 0 84 26 75 79 -1
423 0 84 30 74 76 -1
424 0 84 29 77 75 -1
425 0 85 0 0 75 5252
426 0 85 98 99 79 -1
427 0 85 98 97 79 4375
428 0 85 95 0 79 -1
429 0 85 95 99 84 1749
430 0 86 94 21 70 -1
431 0 86 93 25 73 -1
432 0 86 93 24 73 -1
433 0 86 90 23 70 -1
434 0 86 93 20 68 -1
435 0 87 48 91 51 -1
436 0 87 46 90 50 -1
437 0 87 49 92 50 5064
438 0 87 51 89 49 1767
439 0 87 49 86 49 1768
440 0 88 45 14 22 -1
441 0 88 45 16 23 -1
442 0 88 47 16 27 -1
443 0 88 47 15 25 -1
444 0 88 50 13 24 -1
445 0 89 58 37 52 -1
446 0 89 59 37 51 -1
447 0 89 62 38 48 -1
448 0 89 63 41 49 -1
449 0 89 58 40 48 -1
450 0 90 89 90 60 -1
451 0 90 85 89 57 -1
452 0 90 87 88 58 -1
453 0 90 88 84 61 1997
454 0 90 90 81 58 -1
455 0 91 98 96 30 5156
456 0 91 94 96 30 -1
457 0 91 93 93 27 5530
458 0 91 91 90 26 -1
459 0 91 88 89 25 -1
460 0 92 61 47 38 -1
461 0 92 59 45 37 -1
462 0 92 57 43 39 -1
463 0 92 57 39 42 -1
464 0 92 58 42 40 -1
465 0 93 10 98 81 -1
466 0 93 14 96 83 2033
467 0 93 15 0 83 2030
468 0 93 15 3 83 -1
469 0 93 15 7 81 -1
470 0 94 63 94 3 -1
471 0 94 64 94 3 -1
472 0 94 63 97 7 -1
473 0 94 62 94 11 -1
474 0 94 59 93 8 -1
475 0 95 28 71 94 5800
476 0 95 29 72 96 -1
477 0 95 28 75 94 1522
478 0 95 25 75 93 1521
479 0 95 25 79 91 -1
480 0 96 46 95 28 -1
481 0 96 46 91 27 4840
482 0 96 49 93 28 -1
483 0 96 50 96 25 4842
484 0 96 53 98 25 -1
485 0 97 55 50 84 -1
486 0 97 56 48 83 -1
487 0 97 60 48 81 -1
488 0 97 63 44 80 4416
489 0 97 64 41 76 -1
490 0 98 34 43 74 -1
491 0 98 35 47 76 -1
492 0 98 32 45 79 -1
493 0 98 34 45 75 -1
494 0 98 33 44 70 -1
495 0 99 17 32 96 1762
496 0 99 14 32 94 1761
497 0 99 15 32 90 2133
498 0 99 15 33 87 -1
499 0 99 12 33 90 -1
500 0 100 61 10 90 -1
501 0 100 58 10 94 -1
502 0 100 61 11 95 -1
503 0 100 60 14 93 4445
504 0 100 61 15 91 -1
505 0 101 8 3 74 -1
506 0 101 8 1 70 4406
507 0 101 4 0 71 -1
508 0 101 5 95 70 -1
509 0 101 6 92 69 -1
510 0 102 6 20 0 -1
511 0 102 7 22 98 -1
512 0 102 8 22 0 -1
513 0 102 7 17 99 -1
514 0 102 5 18 95 -1
515 0 103 73 80 53 -1
516 0 103 71 80 53 -1
517 0 103 71 82 50 1288
518 0 103 71 83 55 -1
519 0 103 73 85 57 -1
520 0 104 60 67 31 -1
521 0 104 59 63 32 1415
522 0 104 60 61 36 -1
523 0 104 57 61 39 -1
524 0 104 56 59 43 -1
525 0 105 84 41 75 4769
526 0 105 79 40 76 -1
527 0 105 78 43 80 1343
528 0 105 80 40 79 -1
529 0 105 79 41 74 -1
530 0 106 19 8 57 -1
531 0 106 20 9 56 -1
532 0 106 23 7 55 -1
533 0 106 24 5 58 -1
534 0 106 23 3 59 -1
535 0 107 69 95 87 -1
536 0 107 68 94 88 -1
537 0 107 66 93 87 -1
538 0 107 65 95 91 -1
539 0 107 65 95 93 -1
540 0 108 50 3 86 1399
541 0 108 49 0 88 -1
542 0 108 53 1 85 -1
543 0 108 57 0 82 -1
544 0 108 53 99 82 -1
545 0 109 14 80 61 -1
546 0 109 13 77 58 5716
547 0 109 11 76 54 -1
548 0 109 9 79 56 -1
549 0 109 7 78 55 -1
550 0 110 29 23 85 -1
551 0 110 32 26 88 -1
552 0 110 31 27 90 5553
553 0 110 33 31 90 -1
554 0 110 33 32 85 5556
555 0 111 91 82 62 -1
556 0 111 90 84 61 -1
557 0 111 93 83 57 5410
558 0 111 92 85 53 5411
559 0 111 93 81 51 -1
560 0 112 89 32 78 -1
561 0 112 86 29 80 -1
562 0 112 86 33 77 -1
563 0 112 86 30 79 -1
564 0 112 89 33 77 -1
565 0 113 34 39 67 -1
566 0 113 38 38 70 -1
567 0 113 41 42 70 -1
568 0 113 44 45 70 -1
569 0 113 40 46 68 -1
570 0 114 77 45 62 4634
571 0 114 75 44 61 4792
572 0 114 74 42 58 -1
573 0 114 75 38 59 4794
574 0 114 77 37 62 -1
575 0 115 40 37 85 5369
576 0 115 38 36 85 1724
577 0 115 39 35 80 5365
578 0 115 39 31 82 -1
579 0 115 38 36 81 -1
580 0 116 3 3 73 1825
581 0 116 3 3 76 -1
582 0 116 0 2 77 -1
583 0 116 96 4 77 5256
584 0 116 97 5 81 -1
585 0 117 34 70 70 5218
586 0 117 32 70 71 5788
587 0 117 30 73 68 5789
588 0 117 32 72 67 5217
589 0 117 36 72 67 -1
590 0 118 0 81 88 -1
591 0 118 2 85 90 4305
592 0 118 99 81 89 4870
593 0 118 98 82 85 4300
594 0 118 97 79 85 1381
595 0 119 10 84 32 -1
596 0 119 14 83 32 1477
597 0 119 9 83 33 -1
598 0 119 8 85 32 -1
599 0 119 9 85 33 -1
600 0 120 89 87 64 1999
601 0 120 87 90 67 -1
602 0 120 89 92 68 -1
603 0 120 91 88 67 2216
604 0 120 94 92 67 -1
605 0 121 23 94 41 2190
606 0 121 22 91 38 -1
607 0 121 22 88 36 -1
608 0 121 19 91 33 -1
609 0 121 19 88 32 -1
610 0 122 21 38 11 2390
611 0 122 17 41 11 -1
612 0 122 18 37 14 4966
613 0 122 19 37 10 2391
614 0 122 20 40 12 -1
615 0 123 88 40 34 5131
616 0 123 91 43 37 5130
617 0 123 91 45 36 -1
618 0 123 90 46 32 -1
619 0 123 92 47 34 -1
620 0 124 96 60 59 -1
621 0 124 92 63 58 -1
622 0 124 94 61 54 -1
623 0 124 92 63 53 -1
624 0 124 92 66 55 -1
625 0 125 94 58 86 -1
626 0 125 95 61 84 -1
627 0 125 91 61 84 -1
628 0 125 91 65 83 5211
629 0 125 93 61 82 2085
630 0 126 19 74 28 -1
631 0 126 23 71 27 -1
632 0 126 25 69 27 -1
633 0 126 30 68 28 -1
634 0 126 29 73 28 -1
635 0 127 47 13 49 -1
636 0 127 48 12 46 -1
637 0 127 49 13 44 -1
638 0 127 51 15 47 -1
639 0 127 52 16 46 -1
640 0 128 63 73 68 1685
641 0 128 62 72 70 -1
642 0 128 63 69 67 -1
643 0 128 64 72 66 -1
644 0 128 65 72 70 -1
645 0 129 30 66 4 5114
646 0 129 34 67 2 4618
647 0 129 34 68 6 4560
648 0 129 33 67 6 -1
649 0 129 37 65 5 -1
650 0 130 73 67 29 5833
651 0 130 71 68 33 5700
652 0 130 67 67 35 -1
653 0 130 66 68 31 2158
654 0 130 67 71 28 -1
655 0 131 68 87 35 4336
656 0 131 69 90 39 -1
657 0 131 69 89 39 -1
658 0 131 69 89 34 -1
659 0 131 68 88 38 4961
660 0 132 78 31 6 -1
661 0 132 78 27 3 -1
662 0 132 82 27 4 -1
663 0 132 82 28 4 -1
664 0 132 82 30 7 -1
665 0 133 91 64 74 -1
666 0 133 94 61 77 -1
667 0 133 94 64 81 -1
668 0 133 95 66 77 -1
669 0 133 96 66 79 -1
670 0 134 61 94 19 -1
671 0 134 62 96 18 -1
672 0 134 60 98 18 -1
673 0 134 60 0 21 -1
674 0 134 62 1 22 1904
675 0 135 16 19 40 -1
676 0 135 15 19 39 -1
677 0 135 11 21 38 -1
678 0 135 8 22 42 -1
679 0 135 10 24 44 -1
680 0 136 53 87 9 -1
681 0 136 51 87 11 -1
682 0 136 51 84 14 -1
683 0 136 51 86 11 5166
684 0 136 49 87 12 -1
685 0 137 11 39 19 -1
686 0 137 12 36 17 -1
687 0 137 11 33 14 4969
688 0 137 14 32 11 -1
689 0 137 13 32 15 -1
690 0 138 11 14 71 -1
691 0 138 13 13 75 -1
692 0 138 17 15 77 -1
693 0 138 16 17 77 -1
694 0 138 15 19 81 5813
695 0 139 54 77 28 -1
696 0 139 56 77 25 -1
697 0 139 52 78 26 -1
698 0 139 48 77 25 -1
699 0 139 49 78 26 -1
700 0 140 65 39 35 -1
701 0 140 63 37 39 -1
702 0 140 60 39 36 -1
703 0 140 61 39 38 -1
704 0 140 59 40 36 1811
705 0 141 77 91 36 1305
706 0 141 77 96 37 -1
707 0 141 73 99 38 -1
708 0 141 73 99 39 -1
709 0 141 71 97 38 -1
710 0 142 49 23 63 -1
711 0 142 49 22 63 -1
712 0 142 46 19 62 -1
713 0 142 42 20 62 -1
714 0 142 38 17 63 -1
715 0 143 72 32 44 -1
716 0 143 76 31 47 -1
717 0 143 75 33 51 -1
718 0 143 76 34 55 -1
719 0 143 78 35 52 -1
720 0 144 27 44 17 -1
721 0 144 32 44 17 -1
722 0 144 34 48 17 1973
723 0 144 35 49 15 -1
724 0 144 35 50 15 -1
725 0 145 61 87 17 -1
726 0 145 63 88 13 -1
727 0 145 60 90 11 -1
728 0 145 59 94 11 2442
729 0 145 64 95 10 -1
730 0 146 28 55 65 -1
731 0 146 31 55 66 4819
732 0 146 35 55 67 -1
733 0 146 33 58 69 -1
734 0 146 32 57 74 -1
735 0 147 73 92 16 5395
736 0 147 76 94 19 -1
737 0 147 77 93 15 -1
738 0 147 78 96 18 -1
739 0 147 76 94 15 -1
740 0 148 27 93 70 -1
741 0 148 28 92 72 -1
742 0 148 33 92 73 -1
743 0 148 36 95 72 -1
744 0 148 36 92 76 -1
745 0 149 74 77 36 -1
746 0 149 73 77 38 -1
747 0 149 76 80 38 4363
748 0 149 74 79 37 -1
749 0 149 78 80 37 -1
750 0 150 40 81 93 -1
751 0 150 39 80 96 -1
752 0 150 41 80 99 2292
753 0 150 43 78 1 -1
754 0 150 44 73 2 4398
755 0 151 88 66 22 -1
756 0 151 91 70 21 -1
757 0 151 90 65 22 -1
758 0 151 93 64 23 -1
759 0 151 92 64 23 -1
760 0 152 7 45 20 -1
761 0 152 9 42 19 4625
762 0 152 12 45 21 -1
763 0 152 11 42 20 4926
764 0 152 9 39 17 4626
765 0 153 37 41 21 -1
766 0 153 41 44 22 -1
767 0 153 40 41 19 1491
768 0 153 36 41 20 -1
769 0 153 36 38 19 -1
770 0 154 19 77 31 -1
771 0 154 20 81 28 -1
772 0 154 20 82 29 -1
773 0 154 20 80 25 -1
774 0 154 23 83 22 -1
775 0 155 34 42 49 -1
776 0 155 34 44 46 5092
777 0 155 37 46 47 -1
778 0 155 38 47 49 4393
779 0 155 39 44 52 4395
780 0 156 35 80 7 -1
781 0 156 35 84 7 2067
782 0 156 35 88 9 1547
783 0 156 33 85 7 1549
784 0 156 34 88 9 1591
785 0 157 3 8 76 -1
786 0 157 3 6 76 -1
787 0 157 3 5 76 -1
788 0 157 1 2 74 4420
789 0 157 1 3 75 5403
790 0 158 57 50 58 -1
791 0 158 60 51 62 -1
792 0 158 64 51 59 -1
793 0 158 67 48 61 -1
794 0 158 70 48 59 -1
795 0 159 10 21 69 -1
796 0 159 12 18 71 1905
797 0 159 13 13 72 -1
798 0 159 11 11 72 -1
799 0 159 12 15 70 -1
800 0 160 44 56 23 -1
801 0 160 44 55 24 -1
802 0 160 45 52 23 -1
803 0 160 44 55 21 -1
804 0 160 45 58 23 -1
805 0 161 47 21 91 -1
806 0 161 50 20 89 1889
807 0 161 51 22 93 -1
808 0 161 54 21 96 -1
809 0 161 56 22 0 -1
810 0 162 53 51 47 -1
811 0 162 52 49 49 -1
812 0 162 49 47 51 -1
813 0 162 44 48 51 2476
814 0 162 44 50 55 4724
815 0 163 70 40 4 -1
816 0 163 71 41 1 -1
817 0 163 68 42 4 -1
818 0 163 68 40 0 -1
819 0 163 71 37 1 -1
820 0 164 80 99 12 -1
821 0 164 78 99 12 1567
822 0 164 78 97 13 -1
823 0 164 74 99 13 -1
824 0 164 74 99 9 -1
825 0 165 64 8 10 -1
826 0 165 68 10 12 -1
827 0 165 69 12 10 -1
828 0 165 66 16 10 -1
829 0 165 66 14 8 -1
830 0 166 42 80 81 -1
831 0 166 40 79 79 -1
832 0 166 42 78 81 -1
833 0 166 42 79 82 -1
834 0 166 46 80 81 -1
835 0 167 4 80 0 5178
836 0 167 8 79 2 -1
837 0 167 9 77 0 -1
838 0 167 13 79 0 4659
839 0 167 13 79 1 -1
840 0 168 18 32 63 -1
841 0 168 16 30 61 2126
842 0 168 16 33 65 -1
843 0 168 17 29 67 -1
844 0 168 16 25 67 -1
845 0 169 76 79 80 -1
846 0 169 75 81 84 -1
847 0 169 72 83 84 -1
848 0 169 70 82 88 -1
849 0 169 69 84 85 -1
850 0 170 10 57 64 -1
851 0 170 12 56 63 -1
852 0 170 11 57 64 1467
853 0 170 9 57 62 -1
854 0 170 13 58 65 -1
855 0 171 73 75 68 -1
856 0 171 70 76 67 -1
857 0 171 67 77 69 -1
858 0 171 66 82 68 -1
859 0 171 69 85 68 5910
860 0 172 21 69 70 -1
861 0 172 22 70 68 1301
862 0 172 25 70 67 -1
863 0 172 25 69 71 2145
864 0 172 23 66 74 -1
865 0 173 28 61 9 -1
866 0 173 29 58 9 5241
867 0 173 28 55 6 5242
868 0 173 27 52 10 -1
869 0 173 28 50 12 -1
870 0 174 51 33 43 -1
871 0 174 52 30 46 -1
872 0 174 54 29 45 -1
873 0 174 56 25 46 -1
874 0 174 52 23 47 -1
875 0 175 23 65 4 5998
876 0 175 25 67 1 5799
877 0 175 22 67 5 -1
878 0 175 20 67 5 5999
879 0 175 18 63 4 -1
880 0 176 42 22 3 -1
881 0 176 41 19 6 -1
882 0 176 41 18 8 5186
883 0 176 43 17 11 -1
884 0 176 47 19 10 5467
885 0 177 36 95 63 4863
886 0 177 38 95 67 1705
887 0 177 38 0 66 -1
888 0 177 35 98 67 -1
889 0 177 38 2 68 -1
890 0 178 81 5 69 2499
891 0 178 80 7 69 -1
892 0 178 79 11 69 -1
893 0 178 80 14 67 -1
894 0 178 81 11 69 -1
895 0 179 73 11 97 -1
896 0 179 72 7 97 -1
897 0 179 71 5 96 -1
898 0 179 76 6 97 2208
899 0 179 75 4 94 -1
900 0 180 42 23 33 -1
901 0 180 43 23 32 -1
902 0 180 39 25 31 -1
903 0 180 40 25 27 -1
904 0 180 41 26 29 -1
905 0 181 71 95 6 -1
906 0 181 72 96 7 -1
907 0 181 71 95 2 -1
908 0 181 69 96 1 -1
909 0 181 71 93 2 4697
910 0 182 1 44 9 4986
911 0 182 96 45 9 -1
912 0 182 99 46 10 4990
913 0 182 98 42 10 4987
914 0 182 0 45 9 -1
915 0 183 14 4 5 -1
916 0 183 11 6 7 -1
917 0 183 13 3 4 -1
918 0 183 15 2 4 -1
919 0 183 19 99 3 -1
920 0 184 44 19 51 -1
921 0 184 47 20 47 -1
922 0 184 48 20 42 1332
923 0 184 48 23 43 1759
924 0 184 44 22 46 -1
925 0 185 23 28 37 2416
926 0 185 25 29 36 4548
927 0 185 22 30 38 5331
928 0 185 23 30 41 -1
929 0 185 28 31 41 2418
930 0 186 25 0 82 -1
931 0 186 24 1 80 -1
932 0 186 27 2 77 -1
933 0 186 29 2 78 -1
934 0 186 31 4 74 1675
935 0 187 17 55 65 -1
936 0 187 18 54 60 -1
937 0 187 18 54 64 -1
938 0 187 15 53 60 -1
939 0 187 19 53 60 4573
940 0 188 99 78 73 -1
941 0 188 3 79 70 -1
942 0 188 5 77 67 -1
943 0 188 5 75 65 -1
944 0 188 7 79 64 -1
945 0 189 93 43 47 -1
946 0 189 94 39 50 -1
947 0 189 95 39 51 1345
948 0 189 92 38 51 -1
949 0 189 90 39 54 -1
950 0 190 27 63 59 5840
951 0 190 23 62 57 -1
952 0 190 22 64 61 -1
953 0 190 20 65 62 5011
954 0 190 18 64 64 -1
955 0 191 76 15 91 -1
956 0 191 81 14 92 -1
957 0 191 78 15 89 -1
958 0 191 76 14 93 -1
959 0 191 72 11 94 -1
960 0 192 47 6 92 -1
961 0 192 45 6 90 -1
962 0 192 47 8 88 2003
963 0 192 49 7 90 4884
964 0 192 48 7 87 -1
965 0 193 89 96 89 -1
966 0 193 87 0 88 -1
967 0 193 88 99 89 -1
968 0 193 86 1 92 -1
969 0 193 88 4 92 -1
970 0 194 39 62 67 -1
971 0 194 40 61 66 -1
972 0 194 41 60 65 -1
973 0 194 39 61 65 -1
974 0 194 40 59 61 -1
975 0 195 88 28 47 -1
976 0 195 91 28 44 -1
977 0 195 91 27 41 -1
978 0 195 92 28 42 -1
979 0 195 93 32 43 2376
980 0 196 22 55 60 -1
981 0 196 18 56 60 -1
982 0 196 19 55 60 4574
983 0 196 19 60 61 1408
984 0 196 17 60 63 -1
985 0 197 69 16 38 -1
986 0 197 72 16 34 -1
987 0 197 76 15 33 -1
988 0 197 75 10 34 -1
989 0 197 79 11 34 -1
990 0 198 57 51 91 -1
991 0 198 58 47 93 -1
992 0 198 55 47 91 -1
993 0 198 55 49 90 -1
994 0 198 55 49 86 -1
995 0 199 30 57 78 -1
996 0 199 30 56 80 -1
997 0 199 27 54 83 -1
998 0 199 23 55 86 -1
999 0 199 21 58 85 2011
1000 0 200 45 95 73 5205
1001 0 200 49 93 72 4675
1002 0 200 50 96 73 -1
1003 0 200 51 97 71 -1
1004 0 200 47 97 74 -1
1005 0 201 43 54 79 -1
1006 0 201 45 57 82 -1
1007 0 201 48 59 84 -1
1008 0 201 47 56 87 -1
1009 0 201 50 53 86 -1
1010 0 202 14 20 65 -1
1011 0 202 17 20 62 -1
1012 0 202 14 17 65 -1
1013 0 202 10 16 65 -1
1014 0 202 8 18 65 -1
1015 0 203 8 32 58 -1
1016 0 203 7 32 59 2398
1017 0 203 6 32 62 2395
1018 0 203 6 33 66 -1
1019 0 203 5 30 64 -1
1020 0 204 56 79 19 -1
1021 0 204 57 83 20 -1
1022 0 204 57 87 19 -1
1023 0 204 54 86 17 -1
1024 0 204 53 87 16 -1
1025 0 205 5 5 29 5917
1026 0 205 8 4 29 5758
1027 0 205 4 7 30 -1
1028 0 205 3 8 29 -1
1029 0 205 2 4 27 -1
1030 0 206 17 56 82 4704
1031 0 206 13 57 83 -1
1032 0 206 15 55 80 4703
1033 0 206 14 53 83 -1
1034 0 206 17 51 81 -1
1035 0 207 52 98 84 -1
1036 0 207 53 98 83 1315
1037 0 207 52 1 84 1316
1038 0 207 51 2 86 1397
1039 0 207 49 5 86 -1
1040 0 208 23 56 6 -1
1041 0 208 27 54 6 -1
1042 0 208 30 55 3 -1
1043 0 208 29 53 5 -1
1044 0 208 27 54 2 1435
1045 0 209 14 80 33 -1
1046 0 209 11 80 34 2201
1047 0 209 8 77 34 -1
1048 0 209 6 77 35 -1
1049 0 209 6 81 35 1479
1050 0 210 18 61 78 -1
1051 0 210 17 58 76 -1
1052 0 210 17 53 75 -1
1053 0 210 21 54 74 -1
1054 0 210 21 53 76 4426
1055 0 211 52 83 6 -1
1056 0 211 53 82 6 -1
1057 0 211 50 82 6 5038
1058 0 211 52 82 10 5163
1059 0 211 49 81 12 -1
1060 0 212 19 36 38 5334
1061 0 212 24 35 38 -1
1062 0 212 28 35 38 -1
1063 0 212 27 33 36 2419
1064 0 212 31 32 39 5581
1065 0 213 92 62 47 -1
1066 0 213 93 66 49 -1
1067 0 213 92 64 46 2286
1068 0 213 96 62 48 -1
1069 0 213 93 65 45 5595
1070 0 214 41 38 51 -1
1071 0 214 41 35 48 1570
1072 0 214 44 36 46 -1
1073 0 214 42 34 46 -1
1074 0 214 41 32 45 4896
1075 0 215 84 1 37 -1
1076 0 215 85 3 34 -1
1077 0 215 87 6 33 -1
1078 0 215 89 8 30 -1
1079 0 215 86 11 29 1797
1080 0 216 82 2 33 -1
1081 0 216 85 5 33 -1
1082 0 216 86 3 37 -1
1083 0 216 87 5 38 2456
1084 0 216 87 2 37 -1
1085 0 217 13 66 32 -1
1086 0 217 12 68 32 -1
1087 0 217 14 67 35 -1
1088 0 217 15 67 35 -1
1089 0 217 14 62 34 -1
1090 0 218 45 1 58 -1
1091 0 218 47 3 56 -1
1092 0 218 47 2 54 -1
1093 0 218 48 4 55 -1
1094 0 218 46 0 57 -1
1095 0 219 4 19 59 1699
1096 0 219 4 22 62 -1
1097 0 219 2 23 58 -1
1098 0 219 0 24 55 -1
1099 0 219 2 28 57 -1
1100 0 220 62 59 86 -1
1101 0 220 64 59 87 -1
1102 0 220 63 56 90 -1
1103 0 220 61 59 88 -1
1104 0 220 64 62 87 -1
1105 0 221 63 63 10 1427
1106 0 221 64 59 11 1538
1107 0 221 66 60 9 2471
1108 0 221 68 61 11 4317
1109 0 221 70 65 12 5708
1110 0 222 59 41 75 -1
1111 0 222 57 40 72 -1
1112 0 222 60 36 71 -1
1113 0 222 61 33 75 -1
1114 0 222 59 33 72 -1
1115 0 223 29 36 12 -1
1116 0 223 32 37 12 1663
1117 0 223 32 34 14 -1
1118 0 223 32 36 12 -1
1119 0 223 29 37 15 1662
1120 0 224 20 72 69 -1
1121 0 224 24 74 68 2146
1122 0 224 20 74 66 -1
1123 0 224 21 74 71 2147
1124 0 224 20 74 69 1302
1125 0 225 96 65 42 -1
1126 0 225 94 68 45 1912
1127 0 225 91 72 45 -1
1128 0 225 92 70 44 5597
1129 0 225 89 71 43 4289
1130 0 226 16 36 22 -1
1131 0 226 19 38 21 -1
1132 0 226 18 42 21 -1
1133 0 226 19 40 23 -1
1134 0 226 20 44 25 -1
1135 0 227 81 28 42 -1
1136 0 227 79 26 45 -1
1137 0 227 77 22 47 -1
1138 0 227 74 24 46 -1
1139 0 227 76 25 47 -1
1140 0 228 39 43 45 -1
1141 0 228 40 40 46 -1
1142 0 228 37 39 42 -1
1143 0 228 35 41 46 -1
1144 0 228 36 39 44 -1
1145 0 229 9 88 52 -1
1146 0 229 10 87 56 -1
1147 0 229 10 83 54 -1
1148 0 229 11 80 54 -1
1149 0 229 7 83 55 -1
1150 0 230 22 59 82 -1
1151 0 230 23 58 80 2009
1152 0 230 24 61 80 -1
1153 0 230 24 61 83 -1
1154 0 230 23 59 84 -1
1155 0 231 65 60 12 -1
1156 0 231 65 64 11 5350
1157 0 231 66 63 9 1425
1158 0 231 69 59 8 1390
1159 0 231 71 62 9 -1
1160 0 232 89 48 16 -1
1161 0 232 89 49 11 5192
1162 0 232 86 47 11 -1
1163 0 232 84 47 13 -1
1164 0 232 85 49 17 -1
1165 0 233 77 63 31 5837
1166 0 233 72 63 32 -1
1167 0 233 75 67 31 5836
1168 0 233 76 66 31 5838
1169 0 233 76 64 35 -1
1170 0 234 77 45 74 -1
1171 0 234 80 44 70 -1
1172 0 234 81 45 70 -1
1173 0 234 83 44 68 -1
1174 0 234 80 43 66 -1
1175 0 235 26 83 54 -1
1176 0 235 31 82 54 -1
1177 0 235 31 81 51 -1
1178 0 235 29 79 55 -1
1179 0 235 26 75 54 -1
1180 0 236 81 92 96 -1
1181 0 236 78 91 96 -1
1182 0 236 77 94 0 -1
1183 0 236 74 98 99 4695
1184 0 236 77 1 98 -1
1185 0 237 49 22 52 -1
1186 0 237 51 20 50 4598
1187 0 237 47 23 51 4835
1188 0 237 44 23 47 -1
1189 0 237 45 28 48 1737
1190 0 238 69 19 83 -1
1191 0 238 71 15 84 5277
1192 0 238 74 13 84 -1
1193 0 238 77 14 84 -1
1194 0 238 76 18 86 -1
1195 0 239 69 47 11 -1
1196 0 239 69 47 10 -1
1197 0 239 69 46 7 -1
1198 0 239 65 47 6 -1
1199 0 239 63 47 6 -1
1200 0 240 63 29 13 4310
1201 0 240 66 29 13 -1
1202 0 240 68 31 9 4308
1203 0 240 72 32 7 -1
1204 0 240 75 33 9 -1
1205 0 241 96 81 50 -1
1206 0 241 97 80 49 -1
1207 0 241 99 82 47 -1
1208 0 241 97 84 49 -1
1209 0 241 93 85 52 5406
1210 0 242 58 99 46 -1
1211 0 242 62 98 44 -1
1212 0 242 60 95 41 -1
1213 0 242 61 94 44 -1
1214 0 242 61 93 44 -1
1215 0 243 27 24 11 -1
1216 0 243 29 21 10 -1
1217 0 243 32 23 10 -1
1218 0 243 36 22 13 -1
1219 0 243 34 26 12 -1
1220 0 244 59 53 40 -1
1221 0 244 57 50 41 -1
1222 0 244 58 51 42 -1
1223 0 244 60 53 40 -1
1224 0 244 65 52 41 -1
1225 0 245 17 8 67 -1
1226 0 245 18 8 67 -1
1227 0 245 17 4 70 -1
1228 0 245 15 3 69 -1
1229 0 245 15 99 70 -1
1230 0 246 66 92 74 -1
1231 0 246 65 95 70 -1
1232 0 246 68 95 74 -1
1233 0 246 68 95 78 -1
1234 0 246 65 92 75 -1
1235 0 247 73 16 77 2469
1236 0 247 71 19 79 -1
1237 0 247 69 18 75 -1
1238 0 247 71 16 77 2467
1239 0 247 74 13 78 -1
1240 0 248 63 29 19 -1
1241 0 248 63 29 18 -1
1242 0 248 62 27 14 -1
1243 0 248 66 25 15 -1
1244 0 248 62 24 18 2333
1245 0 249 43 90 26 -1
1246 0 249 41 87 25 -1
1247 0 249 40 87 23 -1
1248 0 249 38 85 25 -1
1249 0 249 37 84 24 -1
1250 1 250 12 0 23 -1
1251 1 250 14 96 23 3775
1252 1 250 17 98 26 -1
1253 1 250 19 96 26 183
1254 1 250 23 96 25 -1
1255 1 251 38 88 62 -1
1256 1 251 40 87 63 -1
1257 1 251 41 85 66 -1
1258 1 251 42 87 70 -1
1259 1 251 44 91 72 -1
1260 1 252 9 45 45 -1
1261 1 252 9 47 43 -1
1262 1 252 10 47 41 -1
1263 1 252 14 49 43 -1
1264 1 252 10 51 45 -1
1265 1 253 81 75 69 -1
1266 1 253 83 77 71 -1
1267 1 253 88 78 72 -1
1268 1 253 92 80 70 -1
1269 1 253 93 83 69 -1
1270 1 254 19 91 73 -1
1271 1 254 22 94 76 -1
1272 1 254 19 95 79 -1
1273 1 254 21 98 82 -1
1274 1 254 20 95 80 -1
1275 1 255 48 52 81 -1
1276 1 255 47 47 82 -1
1277 1 255 46 52 82 -1
1278 1 255 46 51 86 -1
1279 1 255 49 51 89 -1
1280 1 256 55 50 1 -1
1281 1 256 55 46 2 -1
1282 1 256 54 51 1 -1
1283 1 256 53 56 1 2925
1284 1 256 54 60 3 2926
1285 1 257 71 80 47 -1
1286 1 257 75 81 47 -1
1287 1 257 73 78 50 -1
1288 1 257 71 81 49 517
1289 1 257 69 77 51 2896
1290 1 258 37 86 66 -1
1291 1 258 37 86 67 -1
1292 1 258 35 84 68 -1
1293 1 258 33 87 68 -1
1294 1 258 32 92 68 -1
1295 1 259 13 19 97 -1
1296 1 259 16 19 97 -1
1297 1 259 17 19 99 -1
1298 1 259 14 18 0 -1
1299 1 259 16 17 97 -1
1300 1 260 22 73 71 -1
1301 1 260 21 71 68 861
1302 1 260 19 75 70 1124
1303 1 260 16 78 69 -1
1304 1 260 16 82 71 -1
1305 1 261 77 92 36 705
1306 1 261 77 88 38 -1
1307 1 261 75 89 37 -1
1308 1 261 74 91 39 -1
1309 1 261 69 90 40 -1
1310 1 262 25 90 22 -1
1311 1 262 25 86 22 -1
1312 1 262 24 87 17 -1
1313 1 262 29 86 18 -1
1314 1 262 27 89 19 351
1315 1 263 53 97 82 1036
1316 1 263 53 2 83 1037
1317 1 263 53 1 80 -1
1318 1 263 56 0 77 -1
1319 1 263 53 1 75 -1
1320 1 264 11 37 10 -1
1321 1 264 7 38 13 3758
1322 1 264 8 37 11 3755
1323 1 264 5 37 8 -1
1324 1 264 8 40 8 -1
1325 1 265 13 86 75 3015
1326 1 265 16 87 76 -1
1327 1 265 14 86 73 -1
1328 1 265 15 86 68 -1
1329 1 265 16 83 65 198
1330 1 266 52 20 44 -1
1331 1 266 47 21 43 -1
1332 1 266 47 21 41 922
1333 1 266 46 19 42 -1
1334 1 266 46 15 39 -1
1335 1 267 44 4 13 -1
1336 1 267 41 7 14 -1
1337 1 267 37 9 14 -1
1338 1 267 37 5 12 -1
1339 1 267 35 2 15 -1
1340 1 268 80 47 75 -1
1341 1 268 80 42 75 3911
1342 1 268 82 40 78 -1
1343 1 268 79 42 81 527
1344 1 268 80 39 77 -1
1345 1 269 94 40 50 947
1346 1 269 94 38 51 -1
1347 1 269 92 39 54 3803
1348 1 269 91 43 51 -1
1349 1 269 93 44 48 -1
1350 1 270 73 62 15 -1
1351 1 270 70 60 12 -1
1352 1 270 71 60 14 -1
1353 1 270 68 56 14 -1
1354 1 270 70 58 15 -1
1355 1 271 34 42 78 -1
1356 1 271 31 40 75 -1
1357 1 271 30 39 70 -1
1358 1 271 31 40 73 365
1359 1 271 35 41 70 -1
1360 1 272 91 92 82 -1